# vtk DataFile Version 2.0
track0
ASCII
DATASET POLYDATA
POINTS 32640 float
-0.0205 0.001 1e-05
-0.02097 0.00100001 1e-05
-0.02144 0.00100002 1e-05
-0.02191 0.00100002 1e-05
-0.02238 0.00100003 1e-05
-0.02285 0.00100004 1e-05
-0.023764 0.00100005 1e-05
-0.024678 0.00100007 1e-05
-0.025592 0.00100008 1e-05
-0.026506 0.0010001 1e-05
-0.02742 0.00100011 1e-05
-0.028334 0.00100013 1e-05
-0.029248 0.00100014 1e-05
-0.030162 0.00100016 1e-05
-0.031076 0.00100017 1e-05
-0.03199 0.00100019 1e-05
-0.032904 0.0010002 1e-05
-0.033818 0.00100022 1e-05
-0.034732 0.00100023 1e-05
-0.035646 0.00100025 1e-05
-0.03656 0.00100026 1e-05
-0.037474 0.00100028 1e-05
-0.038388 0.00100029 1e-05
-0.039302 0.00100031 1e-05
-0.040216 0.00100032 1e-05
-0.04113 0.00100034 1e-05
-0.042044 0.00100035 1e-05
-0.042958 0.00100037 1e-05
-0.043872 0.00100038 1e-05
-0.044786 0.0010004 1e-05
-0.0457 0.00100041 1e-05
-0.046614 0.00100043 1e-05
-0.047528 0.00100044 1e-05
-0.048442 0.00100046 1e-05
-0.049356 0.00100047 1e-05
-0.05027 0.00100049 1e-05
-0.051184 0.0010005 1e-05
-0.052098 0.00100052 1e-05
-0.053012 0.00100053 1e-05
-0.053926 0.00100055 1e-05
-0.05484 0.00100056 1e-05
-0.055754 0.00100058 1e-05
-0.056668 0.00100059 1e-05
-0.057582 0.00100061 1e-05
-0.058496 0.00100062 1e-05
-0.05941 0.00100064 1e-05
-0.060324 0.00100065 1e-05
-0.061238 0.00100067 1e-05
-0.062152 0.00100068 1e-05
-0.063066 0.0010007 1e-05
-0.06398 0.00100071 1e-05
-0.064894 0.00100073 1e-05
-0.065808 0.00100074 1e-05
-0.066722 0.00100076 1e-05
-0.067636 0.00100078 1e-05
-0.06855 0.00100079 1e-05
-0.069464 0.00100081 1e-05
-0.070378 0.00100082 1e-05
-0.071292 0.00100084 1e-05
-0.072206 0.00100085 1e-05
-0.07312 0.00100087 1e-05
-0.074034 0.00100088 1e-05
-0.074948 0.0010009 1e-05
-0.075862 0.00100092 1e-05
-0.076776 0.00100093 1e-05
-0.07769 0.00100095 1e-05
-0.078604 0.00100096 1e-05
-0.079518 0.00100098 1e-05
-0.080432 0.00100099 1e-05
-0.081346 0.00100101 1e-05
-0.08226 0.00100103 1e-05
-0.083174 0.00100104 1e-05
-0.084088 0.00100106 1e-05
-0.085002 0.00100107 1e-05
-0.085916 0.00100109 1e-05
-0.08683 0.0010011 1e-05
-0.087744 0.00100112 1e-05
-0.088658 0.00100114 1e-05
-0.089572 0.00100115 1e-05
-0.090486 0.00100117 1e-05
-0.0914 0.00100119 1e-05
-0.092314 0.0010012 1e-05
-0.093228 0.00100122 1e-05
-0.094142 0.00100123 1e-05
-0.095056 0.00100125 1e-05
-0.09597 0.00100127 1e-05
-0.096884 0.00100128 1e-05
-0.097798 0.0010013 1e-05
-0.098712 0.00100132 1e-05
-0.099626 0.00100133 1e-05
-0.10054 0.00100135 1e-05
-0.101454 0.00100137 1e-05
-0.102368 0.00100138 1e-05
-0.103282 0.0010014 1e-05
-0.104196 0.00100141 1e-05
-0.10511 0.00100143 1e-05
-0.106024 0.00100145 1e-05
-0.106938 0.00100146 1e-05
-0.107852 0.00100148 1e-05
-0.108766 0.0010015 1e-05
-0.10968 0.00100152 1e-05
-0.110594 0.00100153 1e-05
-0.111508 0.00100155 1e-05
-0.112422 0.00100157 1e-05
-0.113336 0.00100158 1e-05
-0.11425 0.0010016 1e-05
-0.115164 0.00100162 1e-05
-0.116078 0.00100163 1e-05
-0.116992 0.00100165 1e-05
-0.117906 0.00100167 1e-05
-0.11882 0.00100169 1e-05
-0.119734 0.0010017 1e-05
-0.120648 0.00100172 1e-05
-0.121562 0.00100174 1e-05
-0.122476 0.00100175 1e-05
-0.12339 0.00100177 1e-05
-0.124304 0.00100179 1e-05
-0.125218 0.00100181 1e-05
-0.126132 0.00100182 1e-05
-0.127046 0.00100184 1e-05
-0.12796 0.00100186 1e-05
-0.128874 0.00100188 1e-05
-0.129788 0.00100189 1e-05
-0.130702 0.00100191 1e-05
-0.131616 0.00100193 1e-05
-0.13253 0.00100195 1e-05
-0.133444 0.00100197 1e-05
-0.134358 0.00100198 1e-05
-0.135272 0.001002 1e-05
-0.136186 0.00100202 1e-05
-0.1371 0.00100204 1e-05
-0.138014 0.00100206 1e-05
-0.138928 0.00100207 1e-05
-0.139842 0.00100209 1e-05
-0.140756 0.00100211 1e-05
-0.14167 0.00100213 1e-05
-0.142584 0.00100215 1e-05
-0.143498 0.00100216 1e-05
-0.144412 0.00100218 1e-05
-0.145326 0.0010022 1e-05
-0.14624 0.00100222 1e-05
-0.147154 0.00100224 1e-05
-0.148068 0.00100226 1e-05
-0.148982 0.00100227 1e-05
-0.149896 0.00100229 1e-05
-0.15081 0.00100231 1e-05
-0.151724 0.00100233 1e-05
-0.152638 0.00100235 1e-05
-0.153552 0.00100237 1e-05
-0.154466 0.00100238 1e-05
-0.15538 0.0010024 1e-05
-0.156294 0.00100242 1e-05
-0.157208 0.00100244 1e-05
-0.158122 0.00100246 1e-05
-0.159036 0.00100248 1e-05
-0.15995 0.0010025 1e-05
-0.160864 0.00100252 1e-05
-0.161778 0.00100253 1e-05
-0.162692 0.00100255 1e-05
-0.163606 0.00100257 1e-05
-0.16452 0.00100259 1e-05
-0.165434 0.00100261 1e-05
-0.166348 0.00100263 1e-05
-0.167262 0.00100265 1e-05
-0.168176 0.00100267 1e-05
-0.16909 0.00100269 1e-05
-0.170004 0.0010027 1e-05
-0.170918 0.00100272 1e-05
-0.171832 0.00100274 1e-05
-0.172746 0.00100276 1e-05
-0.17366 0.00100278 1e-05
-0.174574 0.0010028 1e-05
-0.175488 0.00100282 1e-05
-0.176402 0.00100284 1e-05
-0.177316 0.00100286 1e-05
-0.17823 0.00100288 1e-05
-0.179144 0.00100289 1e-05
-0.180058 0.00100291 1e-05
-0.180972 0.00100293 1e-05
-0.181886 0.00100295 1e-05
-0.1828 0.00100297 1e-05
-0.183714 0.00100299 1e-05
-0.184628 0.00100301 1e-05
-0.185542 0.00100303 1e-05
-0.186456 0.00100305 1e-05
-0.18737 0.00100307 1e-05
-0.188284 0.00100309 1e-05
-0.189198 0.00100311 1e-05
-0.190112 0.00100313 1e-05
-0.191026 0.00100315 1e-05
-0.19194 0.00100316 1e-05
-0.192854 0.00100318 1e-05
-0.193768 0.0010032 1e-05
-0.194682 0.00100322 1e-05
-0.195596 0.00100324 1e-05
-0.19651 0.00100326 1e-05
-0.197424 0.00100328 1e-05
-0.198338 0.0010033 1e-05
-0.199252 0.00100332 1e-05
-0.200166 0.00100334 1e-05
-0.20108 0.00100336 1e-05
-0.201994 0.00100338 1e-05
-0.202908 0.0010034 1e-05
-0.203822 0.00100342 1e-05
-0.204736 0.00100344 1e-05
-0.20565 0.00100346 1e-05
-0.206564 0.00100348 1e-05
-0.207478 0.0010035 1e-05
-0.208392 0.00100352 1e-05
-0.209306 0.00100354 1e-05
-0.21022 0.00100356 1e-05
-0.211134 0.00100357 1e-05
-0.212048 0.00100359 1e-05
-0.212962 0.00100361 1e-05
-0.213876 0.00100363 1e-05
-0.21479 0.00100365 1e-05
-0.215704 0.00100367 1e-05
-0.216618 0.00100369 1e-05
-0.217532 0.00100371 1e-05
-0.218446 0.00100373 1e-05
-0.21936 0.00100375 1e-05
-0.220274 0.00100377 1e-05
-0.221188 0.00100379 1e-05
-0.222102 0.00100381 1e-05
-0.223016 0.00100383 1e-05
-0.22393 0.00100385 1e-05
-0.224844 0.00100387 1e-05
-0.225758 0.00100389 1e-05
-0.226672 0.00100391 1e-05
-0.227586 0.00100393 1e-05
-0.2285 0.00100395 1e-05
-0.229414 0.00100397 1e-05
-0.230328 0.00100399 1e-05
-0.231242 0.00100401 1e-05
-0.232156 0.00100403 1e-05
-0.23307 0.00100405 1e-05
-0.233984 0.00100407 1e-05
-0.234898 0.00100409 1e-05
-0.235812 0.00100411 1e-05
-0.236726 0.00100413 1e-05
-0.23764 0.00100415 1e-05
-0.238554 0.00100417 1e-05
-0.239468 0.00100419 1e-05
-0.240382 0.00100421 1e-05
-0.241296 0.00100423 1e-05
-0.24221 0.00100425 1e-05
-0.243124 0.00100427 1e-05
-0.244038 0.00100429 1e-05
-0.244952 0.00100431 1e-05
-0.245866 0.00100433 1e-05
-0.24678 0.00100435 1e-05
-0.247694 0.00100438 1e-05
-0.248608 0.0010044 1e-05
-0.249522 0.00100442 1e-05
-0.250436 0.00100444 1e-05
-0.25135 0.00100446 1e-05
-0.252264 0.00100448 1e-05
-0.253178 0.0010045 1e-05
-0.254092 0.00100452 1e-05
-0.255006 0.00100454 1e-05
-0.25592 0.00100456 1e-05
-0.256834 0.00100458 1e-05
-0.257748 0.00100461 1e-05
-0.258662 0.00100463 1e-05
-0.259576 0.00100465 1e-05
-0.26049 0.00100467 1e-05
-0.261404 0.00100469 1e-05
-0.262318 0.00100471 1e-05
-0.263232 0.00100473 1e-05
-0.264146 0.00100476 1e-05
-0.26506 0.00100478 1e-05
-0.265974 0.0010048 1e-05
-0.266888 0.00100482 1e-05
-0.267802 0.00100484 1e-05
-0.268716 0.00100487 1e-05
-0.26963 0.00100489 1e-05
-0.270544 0.00100491 1e-05
-0.271458 0.00100493 1e-05
-0.272372 0.00100495 1e-05
-0.273286 0.00100498 1e-05
-0.2742 0.001005 1e-05
-0.275114 0.00100502 1e-05
-0.276028 0.00100505 1e-05
-0.276942 0.00100507 1e-05
-0.277856 0.00100509 1e-05
-0.27877 0.00100512 1e-05
-0.279684 0.00100514 1e-05
-0.280598 0.00100516 1e-05
-0.281512 0.00100519 1e-05
-0.282426 0.00100521 1e-05
-0.28334 0.00100524 1e-05
-0.284254 0.00100526 1e-05
-0.285168 0.00100529 1e-05
-0.286082 0.00100531 1e-05
-0.286996 0.00100534 1e-05
-0.28791 0.00100536 1e-05
-0.288824 0.00100539 1e-05
-0.289738 0.00100541 1e-05
-0.290652 0.00100544 1e-05
-0.291566 0.00100546 1e-05
-0.29248 0.00100549 1e-05
-0.293394 0.00100552 1e-05
-0.294308 0.00100554 1e-05
-0.295222 0.00100557 1e-05
-0.296136 0.0010056 1e-05
-0.29705 0.00100563 1e-05
-0.297964 0.00100565 1e-05
-0.298878 0.00100568 1e-05
-0.299792 0.00100571 1e-05
-0.300706 0.00100574 1e-05
-0.30162 0.00100577 1e-05
-0.302534 0.0010058 1e-05
-0.303448 0.00100583 1e-05
-0.304362 0.00100586 1e-05
-0.305276 0.00100589 1e-05
-0.30619 0.00100592 1e-05
-0.307104 0.00100595 1e-05
-0.308018 0.00100598 1e-05
-0.308932 0.00100602 1e-05
-0.309846 0.00100605 1e-05
-0.31076 0.00100608 1e-05
-0.311674 0.00100612 1e-05
-0.312588 0.00100615 1e-05
-0.313502 0.00100618 1e-05
-0.314416 0.00100622 1e-05
-0.31533 0.00100625 1e-05
-0.316244 0.00100629 1e-05
-0.317158 0.00100633 1e-05
-0.318072 0.00100636 1e-05
-0.318986 0.0010064 1e-05
-0.3199 0.00100644 1e-05
-0.320814 0.00100648 1e-05
-0.321728 0.00100652 1e-05
-0.322642 0.00100656 1e-05
-0.323556 0.0010066 1e-05
-0.32447 0.00100664 1e-05
-0.325384 0.00100668 1e-05
-0.326298 0.00100672 1e-05
-0.327212 0.00100676 1e-05
-0.328126 0.00100681 1e-05
-0.32904 0.00100685 1e-05
-0.329954 0.0010069 1e-05
-0.330868 0.00100695 1e-05
-0.331782 0.00100699 1e-05
-0.332696 0.00100704 1e-05
-0.33361 0.00100709 1e-05
-0.334524 0.00100714 1e-05
-0.335438 0.00100719 1e-05
-0.336352 0.00100724 1e-05
-0.337266 0.00100729 1e-05
-0.33818 0.00100735 1e-05
-0.339094 0.0010074 1e-05
-0.340008 0.00100746 1e-05
-0.340922 0.00100751 1e-05
-0.341836 0.00100757 1e-05
-0.34275 0.00100763 1e-05
-0.343664 0.00100769 1e-05
-0.344578 0.00100775 1e-05
-0.345492 0.00100781 1e-05
-0.346406 0.00100788 1e-05
-0.34732 0.00100794 1e-05
-0.348234 0.00100801 1e-05
-0.349148 0.00100807 1e-05
-0.350062 0.00100814 1e-05
-0.350976 0.00100821 1e-05
-0.35189 0.00100828 1e-05
-0.352804 0.00100836 1e-05
-0.353718 0.00100843 1e-05
-0.354632 0.00100851 1e-05
-0.355546 0.00100858 1e-05
-0.35646 0.00100866 1e-05
-0.357374 0.00100874 1e-05
[...]
POINT_DATA 32640
 FIELD attributes 2
p 1 32640 float
-185.957 -185.952 -185.947 -185.942 -185.937 -185.932 -185.923 -185.913 -185.903 -185.894 -185.884 -185.874 -185.865 -185.855 -185.845 -185.835 -185.826 -185.816 -185.806 -185.796 -185.787 -185.777 -185.767 -185.757 -185.748 -185.738 -185.728 -185.718 -185.709 -185.699 -185.689 -185.679 -185.67 -185.66 -185.65 -185.64 -185.631 -185.621 -185.611 -185.601 -185.592 -185.582 -185.572 -185.562 -185.552 -185.543 -185.533 -185.523 -185.513 -185.503 -185.494 -185.484 -185.474 -185.464 -185.454 -185.445 -185.435 -185.425 -185.415 -185.405 -185.396 -185.386 -185.376 -185.366 -185.356 -185.346 -185.337 -185.327 -185.317 -185.307 -185.297 -185.287 -185.278 -185.268 -185.258 -185.248 -185.238 -185.228 -185.218 -185.209 -185.199 -185.189 -185.179 -185.169 -185.159 -185.149 -185.14 -185.13 -185.12 -185.11 -185.1 -185.09 -185.08 -185.07 -185.061 -185.051 -185.041 -185.031 -185.021 -185.011 -185.001 -184.991 -184.981 -184.972 -184.962 -184.952 -184.942 -184.932 -184.922 -184.912 -184.902 -184.892 -184.882 -184.872 -184.862 -184.853 -184.843 -184.833 -184.823 -184.813 -184.803 -184.793 -184.783 -184.773 -184.763 -184.753 -184.743 -184.733 -184.723 -184.713 -184.703 -184.693 -184.683 -184.673 -184.664 -184.654 -184.644 -184.634 -184.624 -184.614 -184.604 -184.594 -184.584 -184.574 -184.564 -184.554 -184.544 -184.534 -184.524 -184.514 -184.504 -184.494 -184.484 -184.474 -184.464 -184.454 -184.444 -184.434 -184.424 -184.414 -184.404 -184.394 -184.384 -184.373 -184.363 -184.353 -184.343 -184.333 -184.323 -184.313 -184.303 -184.293 -184.283 -184.273 -184.263 -184.253 -184.243 -184.233 -184.223 -184.213 -184.203 -184.192 -184.182 -184.172 -184.162 -184.152 -184.142 -184.132 -184.122 -184.112 -184.101 -184.091 -184.081 -184.071 -184.061 -184.051 -184.041 -184.03 -184.02 -184.01 -184 -183.99 -183.979 -183.969 -183.959 -183.949 -183.939 -183.928 -183.918 -183.908 -183.898 -183.887 -183.877 -183.867 -183.856 -183.846 -183.836 -183.825 -183.815 -183.805 -183.794 -183.784 -183.773 -183.763 -183.753 -183.742 -183.732 -183.721 -183.711 -183.7 -183.69 -183.679 -183.669 -183.658 -183.648 -183.637 -183.626 -183.616 -183.605 -183.594 -183.584 -183.573 -183.562 -183.551 -183.54 -183.53 -183.519 -183.508 -183.497 -183.486 -183.475 -183.464 -183.453 -183.442 -183.43 -183.419 -183.408 -183.397 -183.385 -183.374 -183.363 -183.351 -183.34 -183.328 -183.317 -183.305 -183.293 -183.281 -183.27 -183.258 -183.246 -183.234 -183.222 -183.209 -183.197 -183.185 -183.173 -183.16 -183.148 -183.135 -183.122 -183.11 -183.097 -183.084 -183.071 -183.058 -183.044 -183.031 -183.018 -183.004 -182.991 -182.977 -182.963 -182.949 -182.935 -182.921 -182.906 -182.892 -182.877 -182.863 -182.848 -182.833 -182.818 -182.802 -182.786 -182.771 -182.755 -182.739 -182.723 -182.706 -182.69 -182.673 -182.656 -182.639 -182.621 -182.603 -182.586 -182.568 -182.549 -182.53 -182.512 -182.492 -182.473 -182.454 -182.433 -182.413 -182.393 -182.372 -182.351 -182.329 -182.307 -182.285 -182.263 -182.24 -182.217 -182.193 -182.169 -182.145 -182.12 -182.095 -182.069 -182.043 -182.017 -181.99 -181.962 -181.935 -181.906 -181.878 -181.848 -181.818 -181.787 -181.756 -181.725 -181.693 -181.66 -181.626 -181.592 -181.558 -181.523 -181.486 -181.449 -181.412 -181.374 -181.335 -181.295 -181.254 -181.213 -181.172 -181.128 -181.084 -181.039 -180.993 -180.948 -180.9 -180.851 -180.801 -180.751 -180.7 -180.648 -180.593 -180.538 -180.482 -180.426 -180.368 -180.308 -180.247 -180.185 -180.123 -180.059 -179.992 -179.925 -179.856 -179.787 -179.716 -179.641 -179.567 -179.491 -179.415 -179.336 -179.253 -179.171 -179.087 -179.002 -178.914 -178.823 -178.732 -178.639 -178.545 -178.448 -178.347 -178.247 -178.143 -178.04 -177.933 -177.822 -177.71 -177.596 -177.482 -177.364 -177.241 -177.119 -176.993 -176.867 -176.737 -176.602 -176.467 -176.329 -176.191 -176.047 -175.899 -175.751 -175.599 -175.447 -175.29 -175.128 -174.965 -174.799 -174.633 -174.462 -174.284 -174.107 -173.926 -173.744 -173.557 -173.364 -173.171 -172.974 -172.777 -172.574 -172.364 -172.155 -171.941 -171.727 -171.507 -171.281 -171.054 -170.824 -170.593 -170.355 -170.111 -169.867 -169.619 -169.37 -169.115 -168.853 -168.591 -168.325 -168.059 -167.786 -167.506 -167.227 -166.943 -166.66 -166.369 -166.073 -165.777 -165.476 -165.175 -164.859 -164.527 -164.195 -163.858 -163.522 -163.169 -162.797 -162.426 -162.051 -161.675 -161.292 -160.901 -160.509 -160.114 -159.72 -159.317 -158.906 -158.496 -158.082 -157.668 -157.248 -156.819 -156.391 -155.96 -155.529 -155.091 -154.647 -154.203 -153.756 -153.309 -152.856 -152.398 -151.939 -151.478 -151.017 -150.55 -150.079 -149.608 -149.134 -148.66 -148.183 -147.7 -147.218 -146.734 -146.249 -145.762 -145.27 -144.779 -144.285 -143.792 -143.296 -142.797 -142.298 -141.798 -141.298 -140.795 -140.29 -139.785 -139.279 -138.773 -138.266 -137.757 -137.248 -136.738 -136.228 -135.717 -135.205 -134.693 -134.18 -133.667 -133.154 -132.64 -132.127 -131.613 -131.099 -130.585 -130.071 -129.557 -129.043 -128.528 -128.015 -127.501 -126.988 -126.474 -125.961 -125.449 -124.937 -124.425 -123.914 -123.402 -122.891 -122.382 -121.873 -121.364 -120.855 -120.347 -119.841 -119.335 -118.829 -118.324 -117.82 -117.317 -116.815 -116.313 -115.812 -115.312 -114.814 -114.316 -113.818 -113.321 -112.826 -112.332 -111.839 -111.347 -110.854 -110.364 -109.876 -109.388 -108.901 -108.413 -107.928 -107.446 -106.963 -106.482 -106 -105.521 -105.044 -104.567 -104.091 -103.615 -103.141 -102.67 -102.199 -101.73 -101.26 -100.792 -100.327 -99.8623 -99.3984 -98.9346 -98.4733 -98.0146 -97.5559 -97.0982 -96.6406 -96.1856 -95.7331 -95.2806 -94.8293 -94.378 -93.9292 -93.4831 -93.0369 -92.592 -92.147 -91.7045 -91.2647 -90.8249 -90.3863 -89.9477 -89.5116 -89.0781 -88.6447 -88.2124 -87.7801 -87.3504 -86.9232 -86.4961 -86.0701 -85.6442 -85.2208 -84.7999 -84.3791 -83.9594 -83.5398 -83.1227 -82.7081 -82.2935 -81.8801 -81.4667 -81.0558 -80.6474 -80.239 -79.8319 -79.4247 -79.0199 -78.6177 -78.2155 -77.8144 -77.4134 -77.0148 -76.6186 -76.2224 -75.8274 -75.4325 -75.0399 -74.6497 -74.2595 -73.8706 -73.4816 -73.095 -72.7107 -72.3265 -71.9434 -71.5603 -71.1796 -70.8011 -70.4227 -70.0455 -69.6682 -69.2933 -68.9206 -68.548 -68.1765 -67.805 -67.4357 -67.0687 -66.7017 -66.3359 -65.97 -65.6064 -65.2449 -64.8835 -64.5232 -64.163 -63.8048 -63.4489 -63.093 -62.7382 -62.3833 -62.0307 -61.6801 -61.3296 -60.9801 -60.6307 -60.2833 -59.9381 -59.5928 -59.2487 -58.9045 -58.5624 -58.2224 -57.8823 -57.5434 -57.2044 -56.8675 -56.5326 -56.1976 -55.8638 -55.5299 -55.1981 -54.8682 -54.5383 -54.2094 -53.8806 -53.5537 -53.2287 -52.9038 -52.5799 -52.256 -51.934 -51.6139 -51.2938 -50.9747 -50.6556 -50.3384 -50.0231 -49.7078 -49.3935 -49.0792 -48.7667 -48.456 -48.1454 -47.8357 -47.5261 -47.2183 -46.9122 -46.6062 -46.3011 -45.9961 -45.6928 -45.3912 -45.0897 -44.7892 -44.4886 -44.1898 -43.8927 -43.5956 -43.2995 -43.0033 -42.7089 -42.4161 -42.1234 -41.8316 -41.5398 -41.2497 -40.9612 -40.6727 -40.3852 -40.0976 -39.8117 -39.5274 -39.2431 -38.9598 -38.6764 -38.3946 -38.1145 -37.8343 -37.555 -37.2757 -36.998 -36.7219 -36.4457 -36.1705 -35.8952 -35.6215 -35.3493 -35.0771 -34.8058 -34.5345 -34.2647 -33.9964 -33.7281 -33.4606 -33.1932 -32.9272 -32.6627 -32.3982 -32.1346 -31.8709 -31.6087 -31.348 -31.0872 -30.8273 -30.5674 -30.3088 -30.0518 -29.7947 -29.5384 -29.2821 -29.0273 -28.7738 -28.5203 -28.2676 -28.0149 -27.7636 -27.5137 -27.2637 -27.0146 -26.7654 -26.5176 -26.2712 -26.0247 -25.779 -25.5333 -25.2889 -25.0459 -24.8028 -24.5605 -24.3182 -24.0772 -23.8375 -23.5978 -23.3588 -23.1198 -22.8821 -22.6457 -22.4093 -22.1736 -21.9379 -21.7035 -21.4703 -21.2371 -21.0046 -20.7722 -20.5409 -20.3109 -20.0809 -19.8516 -19.6223 -19.3942 -19.1673 -18.9404 -18.7142 -18.4879 -18.2629 -18.0391 -17.8152 -17.5921 -17.3689 -17.1469 -16.9261 -16.7053 -16.4851 -16.2649 -16.0459 -15.828 -15.6101 -15.3929 -15.1757 -14.9596 -14.7446 -14.5296 -14.3153 -14.101 -13.8878 -13.6756 -13.4635 -13.252 -13.0405 -12.8301 -12.6208 -12.4115 -12.2028 -11.9941 -11.7864 -11.5799 -11.3733 -11.1673 -10.9614 -10.7565 -10.5526 -10.3487 -10.1455 -9.94224 -9.74001 -9.5388 -9.33759 -9.13699 -8.93639 -8.73679 -8.53819 -8.3396 -8.1416 -7.94361 -7.7466 -7.55057 -7.35454 -7.15911 -6.96368 -6.76921 -6.57571 -6.38221 -6.1893 -5.99638 -5.80441 -5.6134 -5.42238 -5.23194 -5.04151 -4.852 -4.66343 -4.47485 -4.28685 -4.09885 -3.91176 -3.72559 -3.53942 -3.35381 -3.1682 -2.98349 -2.79968 -2.61587 -2.43262 -2.24937 -2.067 -1.88551 -1.70403 -1.52309 -1.34216 -1.16209 -0.982887 -0.803689 -0.625031 -0.446374 -0.268568 -0.0916183 0.0853314 0.261747 0.438162 0.613741 0.788478 0.963215 1.13742 1.31163 1.48502 1.65758 1.83014 2.00218 2.17422 2.34545 2.51587 2.68628 2.85618 3.02609 3.1952 3.36351 3.53181 3.69961 3.86741 4.03443 4.20067 4.3669 4.53263 4.69836 4.86333 5.02752 5.19171 5.3554 5.5191 5.68204 5.84422 6.0064 6.16808 6.32977 6.49072 6.65092 6.81112 6.97083 7.13055 7.28953 7.44778 7.60603 7.7638 7.92157 8.07862 8.23495 8.39128 8.54713 8.70299 8.85813 9.01257 9.16702 9.32098 9.47494 9.62822 9.78079 9.93337 10.0855 10.2376 10.389 10.5398 10.6905 10.8408 10.991 11.1406 11.2896 11.4385 11.587 11.7354 11.8833 12.0304 12.1776 12.3243 12.4709 12.617 12.7624 12.9078 13.0527 13.1977 13.342 13.4856 13.6293 13.7725 13.9157 14.0583 14.2002 14.3422 14.4837 14.6252 14.7661 14.9064 15.0467 15.1865 15.3263 15.4655 15.6041 15.7428 15.8809 16.0191 16.1567 16.2936 16.4306 16.5671 16.7037 16.8396 16.975 17.1104 17.2453 17.3802 17.5145 17.6483 17.7821 17.9154 18.0487 18.1815 18.3137 18.4459 18.5776 18.7094 18.8406 18.9712 19.1019 19.2321 19.3623 19.4919 19.621 19.7501 19.8788 20.0074 20.1356 20.2632 20.3908 20.5179 20.6451 20.7717 20.8978 21.0239 21.1495 21.2752 21.4003 21.5249 21.6495 21.7737 21.8978 22.0215 22.1447 22.2678 22.3905 22.5132 22.6354 22.7571 22.8788 23.0001 23.1213 23.2421 23.3623 23.4826 23.6024 23.7222 23.8416 23.9604 24.0793 24.1976 24.316 24.434 24.5514 24.6689 24.7858 24.9028 25.0194 25.1354 25.2515 25.3671 25.4827 25.5978 25.7125 25.8272 25.9414 26.0556 26.1694 26.2827 26.396 26.5089 26.6217 26.7341 26.8461 26.958 27.0695 27.181 27.2921 27.4027 27.5133 27.6235 27.7336 27.8433 27.9526 28.0619 28.1707 28.2795 28.3879 28.4959 28.6038 28.7113 28.8188 28.9259 29.0325 29.1391 29.2453 29.3515 29.4572 29.5625 29.6679 29.7727 29.8776 29.982 30.086 30.1901 30.2936 30.3971 30.5003 30.603 30.7057 30.808 30.9102 31.012 31.1135 31.2149 31.3158 31.4168 31.5173 31.6175 31.7176 31.8173 31.9169 32.0161 32.115 32.2139 32.3122 32.4106 32.5086 32.6061 32.7037 32.8008 32.8979 32.9945 33.0909 33.1872 33.283 33.3787 33.4741 33.5692 33.6642 33.7587 33.8532 33.9473 34.0411 34.1349 34.2281 34.3213 34.4141 34.5066 34.5991 34.6911 34.783 34.8745 34.9658 35.057 35.1476 35.2382 35.3285 35.4184 35.5084 35.5977 35.687 35.776 35.8647 35.9533 36.0413 36.1293 36.217 36.3044 36.3917 36.4784 36.5652 36.6515 36.7376 36.8236 36.909 36.9944 37.0795 37.1642 37.249 37.333 37.4171 37.5008 37.5843 37.6677 37.7504 37.8332 37.9156 37.9977 38.0798 38.1612 38.2426 38.3237 38.4045 38.4853 38.5653 38.6453 38.7251 38.8045 38.884 38.9626 39.0413 39.1197 39.1978 39.2759 39.3532 39.4305 39.5075 39.5843 39.661 39.7369 39.8128 39.8884 39.9638 40.0391 40.1136 40.1881 40.2623 40.3363 40.4102 40.4833 40.5563 40.6291 40.7016 40.7741 40.8457 40.9173 40.9886 41.0597 41.1308 41.2009 41.271 41.3409 41.4105 41.4801 41.5487 41.6173 41.6857 41.7538 41.822 41.8891 41.9562 42.023 42.0897 42.1563 42.2219 42.2874 42.3527 42.4179 42.483 42.547 42.611 42.6748 42.7384 42.802 42.8644 42.9268 42.989 43.051 43.1131 43.1739 43.2347 43.2953 43.3557 43.4161 43.4753 43.5345 43.5934 43.6522 43.711 43.7685 43.8259 43.8832 43.9403 43.9974 44.0532 44.109 44.1645 44.2199 44.2754 44.3294 44.3834 44.4372 44.4909 44.5446 44.5969 44.6491 44.7012 44.7532 44.8051 44.8556 44.906 44.9564 45.0065 45.0567 45.1054 45.154 45.2025 45.2509 45.2993 45.3461 45.3929 45.4395 45.4861 45.5326 45.5775 45.6224 45.6671 45.7118 45.7564 45.7994 45.8423 45.8852 45.9279 45.9706 46.0116 46.0525 46.0934 46.1342 46.175 46.2139 46.2529 46.2918 46.3306 46.3694 46.4063 46.4433 46.4802 46.517 46.5538 46.5887 46.6236 46.6584 46.6932 46.728 46.7608 46.7936 46.8263 46.859 46.8917 46.9224 46.953 46.9836 47.0142 47.0448 47.0733 47.1018 47.1303 47.1588 47.1872 47.2136 47.2399 47.2662 47.2925 47.3189 47.343 47.3671 47.3913 47.4154 47.4395 47.4614 47.4833 47.5052 47.5272 47.5491 47.5687 47.5884 47.608 47.6277 47.6474 47.6648 47.6822 47.6996 47.717 47.7344 47.7495 47.7646 47.7797 47.7948 47.8099 47.8227 47.8354 47.8482 47.8611 47.874 47.8844 47.8949 47.9054 47.9161 47.9267 47.9349 47.9431 47.9513 47.9596 47.9679 47.9737 47.9796 47.9853 47.991 47.9967 47.9999 48.0031 48.0062 48.0093 48.0124 48.013 48.0136 48.0145 48.0158 48.017