# vtk DataFile Version 2.0
track0
ASCII
DATASET POLYDATA
POINTS 32640 float
-0.0205 0.001 1e-05
-0.02097 0.00100001 1e-05
-0.02144 0.00100002 1e-05
-0.02191 0.00100002 1e-05
-0.02238 0.00100003 1e-05
-0.02285 0.00100004 1e-05
-0.023764 0.00100005 1e-05
-0.024678 0.00100007 1e-05
-0.025592 0.00100008 1e-05
-0.026506 0.0010001 1e-05
-0.02742 0.00100011 1e-05
-0.028334 0.00100013 1e-05
-0.029248 0.00100014 1e-05
-0.030162 0.00100016 1e-05
-0.031076 0.00100017 1e-05
-0.03199 0.00100019 1e-05
-0.032904 0.0010002 1e-05
-0.033818 0.00100022 1e-05
-0.034732 0.00100023 1e-05
-0.035646 0.00100025 1e-05
-0.03656 0.00100026 1e-05
-0.037474 0.00100028 1e-05
-0.038388 0.00100029 1e-05
-0.039302 0.00100031 1e-05
-0.040216 0.00100032 1e-05
-0.04113 0.00100034 1e-05
-0.042044 0.00100035 1e-05
-0.042958 0.00100037 1e-05
-0.043872 0.00100038 1e-05
-0.044786 0.0010004 1e-05
-0.0457 0.00100041 1e-05
-0.046614 0.00100043 1e-05
-0.047528 0.00100044 1e-05
-0.048442 0.00100046 1e-05
-0.049356 0.00100047 1e-05
-0.05027 0.00100049 1e-05
-0.051184 0.0010005 1e-05
-0.052098 0.00100052 1e-05
-0.053012 0.00100053 1e-05
-0.053926 0.00100055 1e-05
-0.05484 0.00100056 1e-05
-0.055754 0.00100058 1e-05
-0.056668 0.00100059 1e-05
-0.057582 0.00100061 1e-05
-0.058496 0.00100062 1e-05
-0.05941 0.00100064 1e-05
-0.060324 0.00100065 1e-05
-0.061238 0.00100067 1e-05
-0.062152 0.00100068 1e-05
-0.063066 0.0010007 1e-05
-0.06398 0.00100071 1e-05
-0.064894 0.00100073 1e-05
-0.065808 0.00100074 1e-05
-0.066722 0.00100076 1e-05
-0.067636 0.00100078 1e-05
-0.06855 0.00100079 1e-05
-0.069464 0.00100081 1e-05
-0.070378 0.00100082 1e-05
-0.071292 0.00100084 1e-05
-0.072206 0.00100085 1e-05
-0.07312 0.00100087 1e-05
-0.074034 0.00100088 1e-05
-0.074948 0.0010009 1e-05
-0.075862 0.00100092 1e-05
-0.076776 0.00100093 1e-05
-0.07769 0.00100095 1e-05
-0.078604 0.00100096 1e-05
-0.079518 0.00100098 1e-05
-0.080432 0.00100099 1e-05
-0.081346 0.00100101 1e-05
-0.08226 0.00100103 1e-05
-0.083174 0.00100104 1e-05
-0.084088 0.00100106 1e-05
-0.085002 0.00100107 1e-05
-0.085916 0.00100109 1e-05
-0.08683 0.0010011 1e-05
-0.087744 0.00100112 1e-05
-0.088658 0.00100114 1e-05
-0.089572 0.00100115 1e-05
-0.090486 0.00100117 1e-05
-0.0914 0.00100119 1e-05
-0.092314 0.0010012 1e-05
-0.093228 0.00100122 1e-05
-0.094142 0.00100123 1e-05
-0.095056 0.00100125 1e-05
-0.09597 0.00100127 1e-05
-0.096884 0.00100128 1e-05
-0.097798 0.0010013 1e-05
-0.098712 0.00100132 1e-05
-0.099626 0.00100133 1e-05
-0.10054 0.00100135 1e-05
-0.101454 0.00100137 1e-05
-0.102368 0.00100138 1e-05
-0.103282 0.0010014 1e-05
-0.104196 0.00100141 1e-05
-0.10511 0.00100143 1e-05
-0.106024 0.00100145 1e-05
-0.106938 0.00100146 1e-05
-0.107852 0.00100148 1e-05
-0.108766 0.0010015 1e-05
-0.10968 0.00100152 1e-05
-0.110594 0.00100153 1e-05
-0.111508 0.00100155 1e-05
-0.112422 0.00100157 1e-05
-0.113336 0.00100158 1e-05
-0.11425 0.0010016 1e-05
-0.115164 0.00100162 1e-05
-0.116078 0.00100163 1e-05
-0.116992 0.00100165 1e-05
-0.117906 0.00100167 1e-05
-0.11882 0.00100169 1e-05
-0.119734 0.0010017 1e-05
-0.120648 0.00100172 1e-05
-0.121562 0.00100174 1e-05
-0.122476 0.00100175 1e-05
-0.12339 0.00100177 1e-05
-0.124304 0.00100179 1e-05
-0.125218 0.00100181 1e-05
-0.126132 0.00100182 1e-05
-0.127046 0.00100184 1e-05
-0.12796 0.00100186 1e-05
-0.128874 0.00100188 1e-05
-0.129788 0.00100189 1e-05
-0.130702 0.00100191 1e-05
-0.131616 0.00100193 1e-05
-0.13253 0.00100195 1e-05
-0.133444 0.00100197 1e-05
-0.134358 0.00100198 1e-05
-0.135272 0.001002 1e-05
-0.136186 0.00100202 1e-05
-0.1371 0.00100204 1e-05
-0.138014 0.00100206 1e-05
-0.138928 0.00100207 1e-05
-0.139842 0.00100209 1e-05
-0.140756 0.00100211 1e-05
-0.14167 0.00100213 1e-05
-0.142584 0.00100215 1e-05
-0.143498 0.00100216 1e-05
-0.144412 0.00100218 1e-05
-0.145326 0.0010022 1e-05
-0.14624 0.00100222 1e-05
-0.147154 0.00100224 1e-05
-0.148068 0.00100226 1e-05
-0.148982 0.00100227 1e-05
-0.149896 0.00100229 1e-05
-0.15081 0.00100231 1e-05
-0.151724 0.00100233 1e-05
-0.152638 0.00100235 1e-05
-0.153552 0.00100237 1e-05
-0.154466 0.00100238 1e-05
-0.15538 0.0010024 1e-05
-0.156294 0.00100242 1e-05
-0.157208 0.00100244 1e-05
-0.158122 0.00100246 1e-05
-0.159036 0.00100248 1e-05
-0.15995 0.0010025 1e-05
-0.160864 0.00100252 1e-05
-0.161778 0.00100253 1e-05
-0.162692 0.00100255 1e-05
-0.163606 0.00100257 1e-05
-0.16452 0.00100259 1e-05
-0.165434 0.00100261 1e-05
-0.166348 0.00100263 1e-05
-0.167262 0.00100265 1e-05
-0.168176 0.00100267 1e-05
-0.16909 0.00100269 1e-05
-0.170004 0.0010027 1e-05
-0.170918 0.00100272 1e-05
-0.171832 0.00100274 1e-05
-0.172746 0.00100276 1e-05
-0.17366 0.00100278 1e-05
-0.174574 0.0010028 1e-05
-0.175488 0.00100282 1e-05
-0.176402 0.00100284 1e-05
-0.177316 0.00100286 1e-05
-0.17823 0.00100288 1e-05
-0.179144 0.00100289 1e-05
-0.180058 0.00100291 1e-05
-0.180972 0.00100293 1e-05
-0.181886 0.00100295 1e-05
-0.1828 0.00100297 1e-05
-0.183714 0.00100299 1e-05
-0.184628 0.00100301 1e-05
-0.185542 0.00100303 1e-05
-0.186456 0.00100305 1e-05
-0.18737 0.00100307 1e-05
-0.188284 0.00100309 1e-05
-0.189198 0.00100311 1e-05
-0.190112 0.00100313 1e-05
-0.191026 0.00100315 1e-05
-0.19194 0.00100316 1e-05
-0.192854 0.00100318 1e-05
-0.193768 0.0010032 1e-05
-0.194682 0.00100322 1e-05
-0.195596 0.00100324 1e-05
-0.19651 0.00100326 1e-05
-0.197424 0.00100328 1e-05
-0.198338 0.0010033 1e-05
-0.199252 0.00100332 1e-05
-0.200166 0.00100334 1e-05
-0.20108 0.00100336 1e-05
-0.201994 0.00100338 1e-05
-0.202908 0.0010034 1e-05
-0.203822 0.00100342 1e-05
-0.204736 0.00100344 1e-05
-0.20565 0.00100346 1e-05
-0.206564 0.00100348 1e-05
-0.207478 0.0010035 1e-05
-0.208392 0.00100352 1e-05
-0.209306 0.00100354 1e-05
-0.21022 0.00100356 1e-05
-0.211134 0.00100357 1e-05
-0.212048 0.00100359 1e-05
-0.212962 0.00100361 1e-05
-0.213876 0.00100363 1e-05
-0.21479 0.00100365 1e-05
-0.215704 0.00100367 1e-05
-0.216618 0.00100369 1e-05
-0.217532 0.00100371 1e-05
-0.218446 0.00100373 1e-05
-0.21936 0.00100375 1e-05
-0.220274 0.00100377 1e-05
-0.221188 0.00100379 1e-05
-0.222102 0.00100381 1e-05
-0.223016 0.00100383 1e-05
-0.22393 0.00100385 1e-05
-0.224844 0.00100387 1e-05
-0.225758 0.00100389 1e-05
-0.226672 0.00100391 1e-05
-0.227586 0.00100393 1e-05
-0.2285 0.00100395 1e-05
-0.229414 0.00100397 1e-05
-0.230328 0.00100399 1e-05
-0.231242 0.00100401 1e-05
-0.232156 0.00100403 1e-05
-0.23307 0.00100405 1e-05
-0.233984 0.00100407 1e-05
-0.234898 0.00100409 1e-05
-0.235812 0.00100411 1e-05
-0.236726 0.00100413 1e-05
-0.23764 0.00100415 1e-05
-0.238554 0.00100417 1e-05
-0.239468 0.00100419 1e-05
-0.240382 0.00100421 1e-05
-0.241296 0.00100423 1e-05
-0.24221 0.00100425 1e-05
-0.243124 0.00100427 1e-05
-0.244038 0.00100429 1e-05
-0.244952 0.00100431 1e-05
-0.245866 0.00100433 1e-05
-0.24678 0.00100435 1e-05
-0.247694 0.00100438 1e-05
-0.248608 0.0010044 1e-05
-0.249522 0.00100442 1e-05
-0.250436 0.00100444 1e-05
-0.25135 0.00100446 1e-05
-0.252264 0.00100448 1e-05
-0.253178 0.0010045 1e-05
-0.254092 0.00100452 1e-05
-0.255006 0.00100454 1e-05
-0.25592 0.00100456 1e-05
-0.256834 0.00100458 1e-05
-0.257748 0.00100461 1e-05
-0.258662 0.00100463 1e-05
-0.259576 0.00100465 1e-05
-0.26049 0.00100467 1e-05
-0.261404 0.00100469 1e-05
-0.262318 0.00100471 1e-05
-0.263232 0.00100473 1e-05
-0.264146 0.00100476 1e-05
-0.26506 0.00100478 1e-05
-0.265974 0.0010048 1e-05
-0.266888 0.00100482 1e-05
-0.267802 0.00100484 1e-05
-0.268716 0.00100487 1e-05
-0.26963 0.00100489 1e-05
-0.270544 0.00100491 1e-05
-0.271458 0.00100493 1e-05
-0.272372 0.00100495 1e-05
-0.273286 0.00100498 1e-05
-0.2742 0.001005 1e-05
-0.275114 0.00100502 1e-05
-0.276028 0.00100505 1e-05
-0.276942 0.00100507 1e-05
-0.277856 0.00100509 1e-05
-0.27877 0.00100512 1e-05
-0.279684 0.00100514 1e-05
-0.280598 0.00100516 1e-05
-0.281512 0.00100519 1e-05
-0.282426 0.00100521 1e-05
-0.28334 0.00100524 1e-05
-0.284254 0.00100526 1e-05
-0.285168 0.00100529 1e-05
-0.286082 0.00100531 1e-05
-0.286996 0.00100534 1e-05
-0.28791 0.00100536 1e-05
-0.288824 0.00100539 1e-05
-0.289738 0.00100541 1e-05
-0.290652 0.00100544 1e-05
-0.291566 0.00100546 1e-05
-0.29248 0.00100549 1e-05
-0.293394 0.00100552 1e-05
-0.294308 0.00100554 1e-05
-0.295222 0.00100557 1e-05
-0.296136 0.0010056 1e-05
-0.29705 0.00100563 1e-05
-0.297964 0.00100565 1e-05
-0.298878 0.00100568 1e-05
-0.299792 0.00100571 1e-05
-0.300706 0.00100574 1e-05
-0.30162 0.00100577 1e-05
-0.302534 0.0010058 1e-05
-0.303448 0.00100583 1e-05
-0.304362 0.00100586 1e-05
-0.305276 0.00100589 1e-05
-0.30619 0.00100592 1e-05
-0.307104 0.00100595 1e-05
-0.308018 0.00100598 1e-05
-0.308932 0.00100602 1e-05
-0.309846 0.00100605 1e-05
-0.31076 0.00100608 1e-05
-0.311674 0.00100612 1e-05
-0.312588 0.00100615 1e-05
-0.313502 0.00100618 1e-05
-0.314416 0.00100622 1e-05
-0.31533 0.00100625 1e-05
-0.316244 0.00100629 1e-05
-0.317158 0.00100633 1e-05
-0.318072 0.00100636 1e-05
-0.318986 0.0010064 1e-05
-0.3199 0.00100644 1e-05
-0.320814 0.00100648 1e-05
-0.321728 0.00100652 1e-05
-0.322642 0.00100656 1e-05
-0.323556 0.0010066 1e-05
-0.32447 0.00100664 1e-05
-0.325384 0.00100668 1e-05
-0.326298 0.00100672 1e-05
-0.327212 0.00100676 1e-05
-0.328126 0.00100681 1e-05
-0.32904 0.00100685 1e-05
-0.329954 0.0010069 1e-05
-0.330868 0.00100695 1e-05
-0.331782 0.00100699 1e-05
-0.332696 0.00100704 1e-05
-0.33361 0.00100709 1e-05
-0.334524 0.00100714 1e-05
-0.335438 0.00100719 1e-05
-0.336352 0.00100724 1e-05
-0.337266 0.00100729 1e-05
-0.33818 0.00100735 1e-05
-0.339094 0.0010074 1e-05
-0.340008 0.00100746 1e-05
-0.340922 0.00100751 1e-05
-0.341836 0.00100757 1e-05
-0.34275 0.00100763 1e-05
-0.343664 0.00100769 1e-05
-0.344578 0.00100775 1e-05
-0.345492 0.00100781 1e-05
-0.346406 0.00100788 1e-05
-0.34732 0.00100794 1e-05
-0.348234 0.00100801 1e-05
-0.349148 0.00100807 1e-05
-0.350062 0.00100814 1e-05
-0.350976 0.00100821 1e-05
-0.35189 0.00100828 1e-05
-0.352804 0.00100836 1e-05
-0.353718 0.00100843 1e-05
-0.354632 0.00100851 1e-05
-0.355546 0.00100858 1e-05
-0.35646 0.00100866 1e-05
-0.357374 0.00100874 1e-05
[...]
POINT_DATA 32640
 FIELD attributes 1
U 3 32640 float
23.8371 	-0.000388349 	0 23.8369 	-0.000388282 	0 23.8368 	-0.000388278 	0 23.8366 	-0.000388273 	0 23.8364 	-0.000388269 	0 23.8362 	-0.000388265 	0 23.8357 	-0.000388124 	0 23.8353 	-0.000387983 	0 23.8349 	-0.000387894 	0 23.8345 	-0.000387996 	0 23.8342 	-0.000388098 	0 23.8337 	-0.000387987 	0 23.8332 	-0.000387876 	0 23.8328 	-0.000387862 	0 23.8324 	-0.000388054 	0 23.8321 	-0.000388246 	0 23.8316 	-0.000388232 	0 23.8312 	-0.000388218 	0 23.8307 	-0.000388277 	0 23.8304 	-0.000388505 	0 23.83 	-0.000388734 	0 23.8296 	-0.00038875 	0 23.8291 	-0.000388767 	0 23.8287 	-0.000388896 	0 23.8283 	-0.000389239 	0 23.828 	-0.000389581 	0 23.8275 	-0.000389746 	0 23.827 	-0.000389911 	0 23.8266 	-0.000390138 	0 23.8262 	-0.000390517 	0 23.8259 	-0.000390896 	0 23.8254 	-0.000391192 	0 23.8249 	-0.000391489 	0 23.8245 	-0.000391799 	0 23.8242 	-0.00039222 	0 23.8238 	-0.000392642 	0 23.8233 	-0.000393059 	0 23.8229 	-0.000393476 	0 23.8225 	-0.000393859 	0 23.8221 	-0.000394314 	0 23.8217 	-0.000394769 	0 23.8213 	-0.000395253 	0 23.8208 	-0.000395736 	0 23.8204 	-0.000396179 	0 23.82 	-0.000396695 	0 23.8197 	-0.000397211 	0 23.8192 	-0.0003977 	0 23.8187 	-0.000398189 	0 23.8183 	-0.000398695 	0 23.8179 	-0.000399337 	0 23.8176 	-0.00039998 	0 23.8171 	-0.000400501 	0 23.8166 	-0.000401023 	0 23.8162 	-0.00040158 	0 23.8159 	-0.000402298 	0 23.8155 	-0.000403017 	0 23.815 	-0.000403505 	0 23.8146 	-0.000403993 	0 23.8141 	-0.000404584 	0 23.8138 	-0.000405408 	0 23.8134 	-0.000406233 	0 23.8129 	-0.00040671 	0 23.8125 	-0.000407188 	0 23.812 	-0.00040782 	0 23.8117 	-0.000408734 	0 23.8113 	-0.000409648 	0 23.8109 	-0.000410118 	0 23.8104 	-0.000410589 	0 23.81 	-0.000411279 	0 23.8096 	-0.000412304 	0 23.8092 	-0.00041333 	0 23.8088 	-0.00041388 	0 23.8083 	-0.000414431 	0 23.8079 	-0.000415174 	0 23.8075 	-0.000416222 	0 23.8071 	-0.000417269 	0 23.8067 	-0.000417877 	0 23.8062 	-0.000418484 	0 23.8058 	-0.000419267 	0 23.8054 	-0.000420337 	0 23.8051 	-0.000421406 	0 23.8046 	-0.000422076 	0 23.8041 	-0.000422745 	0 23.8037 	-0.000423562 	0 23.8033 	-0.000424638 	0 23.803 	-0.000425714 	0 23.8025 	-0.000426437 	0 23.802 	-0.000427159 	0 23.8016 	-0.000428001 	0 23.8012 	-0.000429076 	0 23.8009 	-0.000430151 	0 23.8004 	-0.000430958 	0 23.7999 	-0.000431764 	0 23.7995 	-0.000432619 	0 23.7991 	-0.000433638 	0 23.7988 	-0.000434657 	0 23.7983 	-0.00043551 	0 23.7978 	-0.000436362 	0 23.7974 	-0.00043722 	0 23.797 	-0.000438193 	0 23.7967 	-0.000439166 	0 23.7962 	-0.000440093 	0 23.7957 	-0.000441021 	0 23.7953 	-0.00044189 	0 23.7949 	-0.000442807 	0 23.7945 	-0.000443724 	0 23.7941 	-0.000444727 	0 23.7936 	-0.000445731 	0 23.7932 	-0.000446625 	0 23.7928 	-0.000447517 	0 23.7924 	-0.000448408 	0 23.792 	-0.000449478 	0 23.7915 	-0.000450548 	0 23.7911 	-0.000451459 	0 23.7907 	-0.00045231 	0 23.7903 	-0.00045316 	0 23.7898 	-0.000454273 	0 23.7894 	-0.000455386 	0 23.7889 	-0.000456314 	0 23.7886 	-0.000457156 	0 23.7882 	-0.000457998 	0 23.7877 	-0.000459168 	0 23.7873 	-0.000460338 	0 23.7868 	-0.000461282 	0 23.7865 	-0.000462114 	0 23.7861 	-0.000462945 	0 23.7856 	-0.000464126 	0 23.7851 	-0.000465308 	0 23.7847 	-0.000466255 	0 23.7843 	-0.000467081 	0 23.784 	-0.000467907 	0 23.7835 	-0.000469117 	0 23.783 	-0.000470328 	0 23.7826 	-0.000471228 	0 23.7822 	-0.00047194 	0 23.7819 	-0.000472653 	0 23.7814 	-0.000473794 	0 23.7809 	-0.000474935 	0 23.7805 	-0.000475742 	0 23.7801 	-0.000476336 	0 23.7797 	-0.000476929 	0 23.7792 	-0.000477984 	0 23.7788 	-0.000479039 	0 23.7783 	-0.000479758 	0 23.778 	-0.000480258 	0 23.7776 	-0.000480757 	0 23.7771 	-0.000481715 	0 23.7766 	-0.000482673 	0 23.7762 	-0.000483307 	0 23.7758 	-0.000483748 	0 23.7755 	-0.000484188 	0 23.775 	-0.000485012 	0 23.7745 	-0.000485836 	0 23.7741 	-0.00048639 	0 23.7737 	-0.000486812 	0 23.7733 	-0.000487234 	0 23.7729 	-0.000487958 	0 23.7724 	-0.000488683 	0 23.7719 	-0.000489193 	0 23.7716 	-0.000489627 	0 23.7712 	-0.000490061 	0 23.7707 	-0.000490759 	0 23.7702 	-0.000491457 	0 23.7698 	-0.000491938 	0 23.7694 	-0.000492351 	0 23.7691 	-0.000492763 	0 23.7686 	-0.000493372 	0 23.7681 	-0.00049398 	0 23.7677 	-0.000494431 	0 23.7673 	-0.000494896 	0 23.7669 	-0.000495361 	0 23.7664 	-0.000495971 	0 23.766 	-0.000496581 	0 23.7655 	-0.000497009 	0 23.7652 	-0.000497442 	0 23.7648 	-0.000497875 	0 23.7643 	-0.000498417 	0 23.7638 	-0.00049896 	0 23.7634 	-0.00049936 	0 23.763 	-0.000499817 	0 23.7626 	-0.000500275 	0 23.7622 	-0.000500792 	0 23.7617 	-0.00050131 	0 23.7612 	-0.000501669 	0 23.7609 	-0.000502096 	0 23.7605 	-0.000502524 	0 23.76 	-0.000502903 	0 23.7595 	-0.000503281 	0 23.7591 	-0.000503579 	0 23.7587 	-0.000504052 	0 23.7583 	-0.000504525 	0 23.7578 	-0.000504815 	0 23.7574 	-0.000505104 	0 23.7569 	-0.000505328 	0 23.7565 	-0.000505769 	0 23.7562 	-0.000506209 	0 23.7557 	-0.000506356 	0 23.7552 	-0.000506503 	0 23.7548 	-0.000506658 	0 23.7544 	-0.000507144 	0 23.754 	-0.000507629 	0 23.7535 	-0.000507745 	0 23.753 	-0.000507861 	0 23.7526 	-0.000507984 	0 23.7522 	-0.000508485 	0 23.7518 	-0.000508986 	0 23.7513 	-0.000509109 	0 23.7508 	-0.000509232 	0 23.7504 	-0.000509352 	0 23.75 	-0.000509891 	0 23.7496 	-0.00051043 	0 23.7491 	-0.000510611 	0 23.7486 	-0.000510791 	0 23.7482 	-0.000510913 	0 23.7478 	-0.000511464 	0 23.7474 	-0.000512014 	0 23.7469 	-0.000512286 	0 23.7464 	-0.000512558 	0 23.746 	-0.000512676 	0 23.7456 	-0.000513223 	0 23.7452 	-0.00051377 	0 23.7447 	-0.000514164 	0 23.7442 	-0.000514559 	0 23.7438 	-0.000514694 	0 23.7434 	-0.000515266 	0 23.743 	-0.000515838 	0 23.7425 	-0.000516346 	0 23.742 	-0.000516853 	0 23.7416 	-0.000517028 	0 23.7412 	-0.000517697 	0 23.7408 	-0.000518367 	0 23.7403 	-0.00051897 	0 23.7398 	-0.000519573 	0 23.7393 	-0.000519792 	0 23.7389 	-0.0005206 	0 23.7385 	-0.000521408 	0 23.738 	-0.000522125 	0 23.7375 	-0.000522843 	0 23.737 	-0.000523108 	0 23.7366 	-0.000524045 	0 23.7362 	-0.000524982 	0 23.7357 	-0.000525884 	0 23.7352 	-0.000526785 	0 23.7347 	-0.000527102 	0 23.7343 	-0.000528136 	0 23.7339 	-0.000529171 	0 23.7334 	-0.000530311 	0 23.7329 	-0.000531451 	0 23.7324 	-0.00053185 	0 23.732 	-0.000533032 	0 23.7316 	-0.000534214 	0 23.7311 	-0.000535692 	0 23.7305 	-0.00053717 	0 23.7301 	-0.000537678 	0 23.7296 	-0.000539014 	0 23.7292 	-0.00054035 	0 23.7287 	-0.000542122 	0 23.7281 	-0.000543894 	0 23.7277 	-0.000544512 	0 23.7272 	-0.000546082 	0 23.7268 	-0.000547652 	0 23.7263 	-0.000549646 	0 23.7257 	-0.000551641 	0 23.7252 	-0.00055242 	0 23.7248 	-0.000554431 	0 23.7243 	-0.000556442 	0 23.7238 	-0.00055885 	0 23.7232 	-0.000561258 	0 23.7227 	-0.000562226 	0 23.7223 	-0.000564617 	0 23.7218 	-0.000567009 	0 23.7213 	-0.000569842 	0 23.7207 	-0.000572674 	0 23.7202 	-0.000573883 	0 23.7197 	-0.000576815 	0 23.7192 	-0.000579747 	0 23.7186 	-0.000583225 	0 23.7181 	-0.000586704 	0 23.7175 	-0.000588246 	0 23.717 	-0.000591732 	0 23.7166 	-0.000595219 	0 23.716 	-0.000599392 	0 23.7154 	-0.000603565 	0 23.7148 	-0.00060548 	0 23.7143 	-0.000609603 	0 23.7138 	-0.000613726 	0 23.7132 	-0.00061868 	0 23.7126 	-0.000623635 	0 23.712 	-0.00062597 	0 23.7115 	-0.000630817 	0 23.7109 	-0.000635665 	0 23.7103 	-0.000641457 	0 23.7097 	-0.00064725 	0 23.7091 	-0.000650037 	0 23.7085 	-0.000655735 	0 23.708 	-0.000661432 	0 23.7073 	-0.000668127 	0 23.7066 	-0.000674821 	0 23.706 	-0.000678078 	0 23.7054 	-0.0006847 	0 23.7049 	-0.000691321 	0 23.7042 	-0.000698922 	0 23.7035 	-0.000706524 	0 23.7028 	-0.00071032 	0 23.7022 	-0.000718139 	0 23.7016 	-0.000725958 	0 23.7008 	-0.000734677 	0 23.7001 	-0.000743396 	0 23.6994 	-0.000747838 	0 23.6988 	-0.000756992 	0 23.6981 	-0.000766147 	0 23.6973 	-0.000776185 	0 23.6966 	-0.000786222 	0 23.6958 	-0.00079139 	0 23.6951 	-0.000801995 	0 23.6944 	-0.000812601 	0 23.6936 	-0.00082409 	0 23.6928 	-0.00083558 	0 23.692 	-0.000841587 	0 23.6913 	-0.000853933 	0 23.6905 	-0.00086628 	0 23.6897 	-0.00087945 	0 23.6888 	-0.000892622 	0 23.688 	-0.000899646 	0 23.6871 	-0.000914005 	0 23.6863 	-0.000928365 	0 23.6854 	-0.000943651 	0 23.6845 	-0.000958937 	0 23.6836 	-0.000967113 	0 23.6827 	-0.000983518 	0 23.6818 	-0.000999924 	0 23.6808 	-0.00101747 	0 23.6798 	-0.00103502 	0 23.6789 	-0.00104453 	0 23.6779 	-0.00106346 	0 23.677 	-0.0010824 	0 23.6759 	-0.00110272 	0 23.6748 	-0.00112304 	0 23.6738 	-0.00113405 	0 23.6727 	-0.00115555 	0 23.6717 	-0.00117705 	0 23.6705 	-0.00120051 	0 23.6694 	-0.00122398 	0 23.6682 	-0.00123662 	0 23.6671 	-0.00126085 	0 23.666 	-0.00128508 	0 23.6647 	-0.00131185 	0 23.6634 	-0.00133862 	0 23.6622 	-0.00135311 	0 23.661 	-0.00138065 	0 23.6597 	-0.00140818 	0 23.6583 	-0.00143875 	0 23.657 	-0.00146931 	0 23.6556 	-0.00148577 	0 23.6542 	-0.00151676 	0 23.6529 	-0.00154775 	0 23.6513 	-0.00158238 	0 23.6498 	-0.00161702 	0 23.6483 	-0.00163568 	0 23.6468 	-0.00167069 	0 23.6453 	-0.00170571 	0 23.6437 	-0.00174513 	0 23.642 	-0.00178456 	0 23.6404 	-0.00180571 	0 23.6387 	-0.00184487 	0 23.637 	-0.00188404 	0 23.6352 	-0.00192817 	0 23.6334 	-0.0019723 	0 23.6316 	-0.0019962 	0 23.6297 	-0.00204043 	0 23.6279 	-0.00208467 	0 23.6259 	-0.00213382 	0 23.6239 	-0.00218297 	0 23.6218 	-0.00220993 	0 23.6198 	-0.00226002 	0 23.6177 	-0.00231011 	0 23.6155 	-0.00236501 	0 23.6133 	-0.00241991 	0 23.6111 	-0.00245026 	0 23.6088 	-0.00250651 	0 23.6065 	-0.00256277 	0 23.6041 	-0.00262363 	0 23.6017 	-0.00268449 	0 23.5992 	-0.00271867 	0 23.5967 	-0.00278209 	0 23.5941 	-0.00284551 	0 23.5914 	-0.00291301 	0 23.5887 	-0.00298052 	0 23.586 	-0.00301889 	0 23.5832 	-0.0030899 	0 23.5804 	-0.00316093 	0 23.5774 	-0.0032352 	0 23.5744 	-0.00330949 	0 23.5714 	-0.00335231 	0 23.5683 	-0.00343177 	0 23.5651 	-0.00351125 	0 23.5618 	-0.00359294 	0 23.5585 	-0.00367464 	0 23.5552 	-0.00372222 	0 23.5517 	-0.00381058 	0 23.5483 	-0.00389895 	0 23.5446 	-0.00398875 	0 23.541 	-0.00407857 	0 23.5372 	-0.0041314 	0 23.5334 	-0.00422905 	0 23.5295 	-0.00432672 	0 23.5255 	-0.00442539 	0 23.5215 	-0.00452407 	0 23.5173 	-0.00458267 	0 23.5131 	-0.00469004 	0 23.5088 	-0.00479743 	0 23.5044 	-0.00490625 	0 23.4999 	-0.0050151 	0 23.4953 	-0.00507986 	0 23.4906 	-0.00519659 	0 23.4859 	-0.00531333 	0 23.481 	-0.00543293 	0 23.4761 	-0.00555255 	0 23.471 	-0.00562371 	0 23.4658 	-0.00574959 	0 23.4606 	-0.0058755 	0 23.4552 	-0.00600574 	0 23.4498 	-0.00613601 	0 23.4442 	-0.00621348 	0 23.4385 	-0.00634834 	0 23.4328 	-0.00648323 	0 23.4268 	-0.00662328 	0 23.4208 	-0.00676336 	0 23.4147 	-0.00684732 	0 23.4084 	-0.00699182 	0 23.4021 	-0.00713635 	0 23.3955 	-0.007286 	0 23.389 	-0.00743569 	0 23.3822 	-0.00752634 	0 23.3753 	-0.00768044 	0 23.3684 	-0.00783459 	0 23.3613 	-0.0079924 	0 23.3541 	-0.00815025 	0 23.3467 	-0.00824788 	0 23.3391 	-0.00841324 	0 23.3316 	-0.00857867 	0 23.3238 	-0.00874668 	0 23.3159 	-0.00891474 	0 23.3079 	-0.00901953 	0 23.2996 	-0.00919354 	0 23.2914 	-0.00936761 	0 23.2828 	-0.00954219 	0 23.2743 	-0.00971683 	0 23.2656 	-0.00982857 	0 23.2566 	-0.0100134 	0 23.2476 	-0.0101982 	0 23.2384 	-0.0103803 	0 23.2291 	-0.0105625 	0 23.2196 	-0.0106809 	0 23.2099 	-0.0108739 	0 23.2002 	-0.011067 	0 23.1902 	-0.0112567 	0 23.1802 	-0.0114464 	0 23.1699 	-0.0115707 	0 23.1594 	-0.0117685 	0 23.1489 	-0.0119663 	0 23.1381 	-0.012161 	0 23.1273 	-0.0123558 	0 23.1163 	-0.0124851 	0 23.105 	-0.0126868 	0 23.0937 	-0.0128885 	0 23.0821 	-0.0130864 	0 23.0705 	-0.0132844 	0 23.0587 	-0.0134183 	0 23.0466 	-0.0136231 	0 23.0345 	-0.0138279 	0 23.0222 	-0.014029 	0 23.0098 	-0.0142302 	0 22.9971 	-0.014368 	0 22.9843 	-0.0145729 	0 22.9714 	-0.0147779 	0 22.9582 	-0.0149796 	0 22.9451 	-0.0151814 	0 22.9312 	-0.0153276 	0 22.9167 	-0.0155481 	0 22.9022 	-0.0157688 	0 22.8875 	-0.0159619 	0 22.8727 	-0.0161552 	0 22.8572 	-0.0163019 	-1.42534e-22 22.841 	-0.0165313 	-5.66591e-22 22.8248 	-0.0167608 	-9.90658e-22 22.8083 	-0.016983 	-2.26375e-21 22.7919 	-0.0172054 	-3.53685e-21 22.7751 	-0.0173558 	-3.54242e-21 22.7579 	-0.017575 	-2.26497e-21 22.7407 	-0.0177944 	-9.87532e-22 22.7233 	-0.0180061 	-5.62983e-22 22.7059 	-0.018218 	-1.38443e-22 22.6882 	-0.0183605 	-1.32516e-22 22.6701 	-0.0185738 	-5.44728e-22 22.652 	-0.0187874 	-9.5695e-22 22.6337 	-0.0189953 	-2.19364e-21 22.6154 	-0.0192035 	-3.43034e-21 22.5968 	-0.0193389 	-3.4358e-21 22.5779 	-0.0195406 	-2.19511e-21 22.559 	-0.0197425 	-9.54424e-22 22.5398 	-0.0199414 	-5.41913e-22 22.5207 	-0.0201405 	-1.29411e-22 22.5012 	-0.0202682 	-1.23882e-22 22.4815 	-0.0204593 	-5.24226e-22 22.4618 	-0.0206505 	-9.24579e-22 22.4419 	-0.0208392 	-2.12462e-21 22.4219 	-0.021028 	-3.32467e-21 22.4017 	-0.0211479 	-3.33001e-21 22.3813 	-0.021327 	-2.12629e-21 22.3608 	-0.0215063 	-9.22582e-22 22.3402 	-0.0216824 	-5.22109e-22 22.3195 	-0.0218587 	-1.21644e-22 22.2986 	-0.0219706 	-1.16094e-22 22.2775 	-0.0221376 	-5.03596e-22 22.2564 	-0.0223047 	-8.91105e-22 22.2351 	-0.0224689 	-2.05207e-21 22.2137 	-0.0226333 	-3.21304e-21 22.1922 	-0.0227364 	-3.10564e-21 22.1705 	-0.022888 	-1.56026e-21 22.1488 	-0.0230397 	-1.48798e-23 22.1269 	-0.0231887 	1.51387e-21 22.105 	-0.0233378 	3.04261e-21 22.0829 	-0.0234324 	3.05307e-21 22.0607 	-0.0235716 	1.53414e-21 22.0384 	-0.023711 	1.5222e-23 22.016 	-0.0238472 	-1.48696e-21 21.9936 	-0.0239836 	-2.98913e-21 21.9711 	-0.0240704 	-3.10555e-21 21.9484 	-0.0241954 	-1.98125e-21 21.9256 	-0.0243206 	-8.5695e-22 21.9028 	-0.0244435 	-4.82647e-22 21.8799 	-0.0245665 	-1.0835e-22 21.857 	-0.0246449 	0 21.8339 	-0.024755 	0 21.8108 	-0.0248652 	0 21.7876 	-0.024973 	0 21.7643 	-0.0250811 	0 21.741 	-0.0251521 	0 21.7176 	-0.0252508 	0 21.6942 	-0.0253498 	0 21.6706 	-0.0254465 	0 21.6471 	-0.0255434 	0 21.6235 	-0.0256073 	-9.76841e-23 21.5998 	-0.0256917 	-4.45464e-22 21.5761 	-0.0257762 	-7.93247e-22 21.5523 	-0.0258588 	-1.8342e-21 21.5285 	-0.0259416 	-2.87516e-21 21.5047 	-0.0259986 	-2.8798e-21 21.4808 	-0.0260725 	-1.83621e-21 21.4569 	-0.0261464 	-7.92632e-22 21.4329 	-0.0262185 	-4.4514e-22 21.4089 	-0.0262907 	-9.76509e-23 21.3849 	-0.0263417 	0 21.3609 	-0.0264035 	0 21.3368 	-0.0264655 	0 21.3127 	-0.0265259 	0 21.2885 	-0.0265864 	0 21.2644 	-0.0266314 	0 21.2402 	-0.0266834 	0 21.2161 	-0.0267355 	0 21.1919 	-0.026786 	0 21.1676 	-0.0268366 	0 21.1434 	-0.0268764 	-8.82821e-23 21.1192 	-0.0269185 	-4.09519e-22 21.095 	-0.0269607 	-7.30759e-22 21.0707 	-0.0270016 	-1.69236e-21 21.0464 	-0.0270425 	-2.65397e-21 21.0221 	-0.0270773 	-2.65822e-21 20.9979 	-0.0271108 	-1.69435e-21 20.9737 	-0.0271445 	-7.30477e-22 20.9493 	-0.0271768 	-4.09606e-22 20.925 	-0.0272091 	-8.8736e-23 20.9008 	-0.0272394 	0 20.8765 	-0.0272651 	0 20.8523 	-0.0272909 	0 20.828 	-0.0273153 	0 20.8037 	-0.0273399 	0 20.7795 	-0.027366 	0 20.7553 	-0.0273844 	0 20.7311 	-0.0274028 	0 20.7069 	-0.02742 	0 20.6826 	-0.0274372 	0 20.6584 	-0.0274597 	-8.0384e-23 20.6343 	-0.027472 	-3.75998e-22 20.6102 	-0.0274843 	-6.71614e-22 20.586 	-0.0274955 	-1.55692e-21 20.5618 	-0.0275067 	-2.44222e-21 20.5377 	-0.0275258 	-2.44607e-21 20.5137 	-0.027532 	-1.55879e-21 20.4897 	-0.0275382 	-6.71521e-22 20.4656 	-0.0275434 	-3.76299e-22 20.4415 	-0.0275486 	-8.10773e-23 20.4175 	-0.0275648 	0 20.3936 	-0.0275663 	0 20.3696 	-0.0275678 	0 20.3457 	-0.0275685 	0 20.3217 	-0.0275691 	0 20.2978 	-0.0275827 	0 20.274 	-0.0275795 	0 20.2502 	-0.0275763 	0 20.2264 	-0.0275724 	0 20.2026 	-0.0275686 	0 20.1788 	-0.0275799 	0 20.1552 	-0.027573 	0 20.1315 	-0.0275661 	0 20.1078 	-0.0275587 	0 20.0841 	-0.0275515 	0 20.0605 	-0.0275609 	-1.68309e-22 20.037 	-0.0275505 	-5.67041e-22 20.0135 	-0.0275401 	-9.65774e-22 19.99 	-0.0275298 	-1.62926e-21 19.9665 	-0.0275194 	-2.29275e-21 19.9431 	-0.0275272 	-2.29548e-21 19.9197 	-0.0275138 	-1.63063e-21 19.8964 	-0.0275004 	-9.65786e-22 19.873 	-0.0274874 	-5.67762e-22 19.8497 	-0.0274745 	-1.69738e-22 19.8264 	-0.0274809 	0 19.8032 	-0.027465 	0 19.7801 	-0.0274492 	0 19.7569 	-0.0274342 	0 19.7337 	-0.0274193 	0 19.7106 	-0.0274245 	0 19.6877 	-0.0274064 	0 19.6647 	-0.0273883 	0 19.6417 	-0.0273714 	0 19.6187 	-0.0273546 	0 19.5958 	-0.0273588 	8.82225e-23 19.573 	-0.027339 	2.10174e-22 19.5502 	-0.0273193 	3.32126e-22 19.5274 	-0.0273012 	2.10456e-22 19.5046 	-0.0272831 	8.87868e-23 19.4819 	-0.0272865 	8.8192e-23 19.4593 	-0.0272652 	2.10142e-22 19.4367 	-0.0272439 	3.32091e-22 19.4141 	-0.0272245 	2.1042e-22 19.3914 	-0.0272053 	8.87491e-23 19.3689 	-0.027208 	0 19.3465 	-0.0271855 	0 19.3241 	-0.027163 	0 19.3017 	-0.0271431 	0 19.2793 	-0.0271231 	0 19.257 	-0.0271253 	0 19.2348 	-0.0271017 	0 19.2126 	-0.027078 	0 19.1903 	-0.0270575 	0 19.1681 	-0.027037 	0 19.146 	-0.0270388 	-6.08133e-23 19.124 	-0.027014 	-2.83648e-22 19.102 	-0.0269893 	-5.06484e-22 19.08 	-0.0269685 	-1.17429e-21 19.058 	-0.0269478 	-1.84209e-21 19.0361 	-0.0269492 	-1.84481e-21 19.0143 	-0.0269232 	-1.17569e-21 18.9925 	-0.0268973 	-5.06575e-22 18.9706 	-0.0268765 	-2.84077e-22 18.9488 	-0.0268558 	-6.15799e-23 18.9271 	-0.0268567 	0 18.9055 	-0.0268294 	0 18.8839 	-0.0268021 	0 18.8623 	-0.0267814 	0 18.8407 	-0.0267607 	0 18.8192 	-0.0267611 	0 18.7978 	-0.0267326 	0 18.7764 	-0.026704 	0 18.755 	-0.0266835 	0 18.7336 	-0.026663 	0 18.7123 	-0.0266631 	-5.58091e-23 18.6911 	-0.0266333 	-2.59016e-22 18.6699 	-0.0266036 	-4.62223e-22 18.6487 	-0.0265828 	-1.07131e-21 18.6275 	-0.0265621 	-1.6804e-21 18.6064 	-0.0265617 	-1.68283e-21 18.5854 	-0.0265313 	-1.07258e-21 18.5644 	-0.0265009 	-4.62323e-22 18.5434 	-0.0264791 	-2.59427e-22 18.5224 	-0.0264573 	-5.65302e-23 18.5015 	-0.0264565 	0 18.4807 	-0.0264263 	0 18.46 	-0.0263961 	0 18.4392 	-0.0263731 	0 18.4184 	-0.0263502 	0 18.3977 	-0.0263489 	0 18.3771 	-0.0263191 	0 18.3565 	-0.0262893 	0 18.3359 	-0.0262658 	0 18.3153 	-0.0262423 	0 18.2948 	-0.0262407 	-5.09216e-23 18.2744 	-0.026211 	-2.34994e-22 18.2541 	-0.0261814 	-4.19067e-22 18.2337 	-0.0261574 	-9.71082e-22 18.2133 	-0.0261334 	-1.5231e-21 18.193 	-0.0261315 	-1.52525e-21 18.1728 	-0.0261021 	-9.72211e-22 18.1526 	-0.0260726 	-4.19169e-22 18.1324 	-0.0260483 	-2.35377e-22 18.1122 	-0.0260239 	-5.15853e-23 18.0921 	-0.0260216 	0 18.0721 	-0.025992 	0 18.0522 	-0.0259625 	0 18.0322 	-0.0259373 	0 18.0121 	-0.0259121 	0 17.9922 	-0.0259094 	0 17.9725 	-0.0258804 	0 17.9527 	-0.0258515 	0 17.9329 	-0.0258261 	0 17.9131 	-0.0258008 	0 17.8934 	-0.0257979 	-4.61152e-23 17.8738 	-0.025769 	-2.11493e-22 17.8542 	-0.02574 	-3.76872e-22 17.8346 	-0.0257143 	-8.73057e-22 17.8149 	-0.0256887 	-1.36924e-21 17.7954 	-0.0256855 	-1.37114e-21 17.776 	-0.0256569 	-8.74055e-22 17.7566 	-0.0256283 	-3.7697e-22 17.7372 	-0.0256027 	-2.11843e-22 17.7178 	-0.0255771 	-4.67156e-23 17.6984 	-0.025574 	0 17.6792 	-0.0255456 	0 17.66 	-0.0255172 	0 17.6408 	-0.0254916 	0 17.6215 	-0.0254661 	0 17.6024 	-0.0254629 	0 17.5834 	-0.0254348 	0 17.5644 	-0.0254067 	0 17.5453 	-0.0253813 	0 17.5263 	-0.025356 	0 17.5073 	-0.0253527 	-4.15411e-23 17.4885 	-0.0253247 	-1.89226e-22 17.4696 	-0.0252967 	-3.3691e-22 17.4508 	-0.0252713 	-7.80021e-22 17.4319 	-0.0252459 	-1.22313e-21 17.4131 	-0.0252426 	-1.22479e-21 17.3945 	-0.025215 	-7.80897e-22 17.3758 	-0.0251873 	-3.37002e-22 17.3571 	-0.0251623 	-1.8954e-22 17.3384 	-0.0251372 	-4.20786e-23 17.3199 	-0.0251339 	0 17.3014 	-0.0251064 	0 17.2829 	-0.0250789 	0 17.2644 	-0.025054 	0 17.2459 	-0.0250291 	0 17.2275 	-0.0250258 	0 17.2092 	-0.0249985 	0 17.1909 	-0.0249713 	0 17.1726 	-0.0249468 	0 17.1542 	-0.0249223 	0 17.136 	-0.0249189 	0 17.1179 	-0.0248917 	0 17.0998 	-0.0248645 	0 17.0816 	-0.0248401 	0 17.0634 	-0.0248158 	0 17.0454 	-0.0248124 	-8.13972e-23 17.0274 	-0.0247854 	-2.72056e-22 17.0095 	-0.0247584 	-4.62714e-22 16.9915 	-0.0247343 	-7.80206e-22 16.9735 	-0.0247102 	-1.0977e-21 16.9556 	-0.0247068 	-1.09882e-21 16.9379 	-0.0246799 	-7.80786e-22 16.9201 	-0.0246531 	-4.62756e-22 16.9023 	-0.0246292 	-2.72403e-22 16.8844 	-0.0246054 	-8.20509e-23 16.8667 	-0.0246019 	0 16.8491 	-0.0245753 	0 16.8315 	-0.0245486 