# vtk DataFile Version 2.0
track0
ASCII
DATASET POLYDATA
POINTS 32640 float
-0.0205 0.001 1e-05
-0.02097 0.00100001 1e-05
-0.02144 0.00100002 1e-05
-0.02191 0.00100002 1e-05
-0.02238 0.00100003 1e-05
-0.02285 0.00100004 1e-05
-0.023764 0.00100005 1e-05
-0.024678 0.00100007 1e-05
-0.025592 0.00100008 1e-05
-0.026506 0.0010001 1e-05
-0.02742 0.00100011 1e-05
-0.028334 0.00100013 1e-05
-0.029248 0.00100014 1e-05
-0.030162 0.00100016 1e-05
-0.031076 0.00100017 1e-05
-0.03199 0.00100019 1e-05
-0.032904 0.0010002 1e-05
-0.033818 0.00100022 1e-05
-0.034732 0.00100023 1e-05
-0.035646 0.00100025 1e-05
-0.03656 0.00100026 1e-05
-0.037474 0.00100028 1e-05
-0.038388 0.00100029 1e-05
-0.039302 0.00100031 1e-05
-0.040216 0.00100032 1e-05
-0.04113 0.00100034 1e-05
-0.042044 0.00100035 1e-05
-0.042958 0.00100037 1e-05
-0.043872 0.00100038 1e-05
-0.044786 0.0010004 1e-05
-0.0457 0.00100041 1e-05
-0.046614 0.00100043 1e-05
-0.047528 0.00100044 1e-05
-0.048442 0.00100046 1e-05
-0.049356 0.00100047 1e-05
-0.05027 0.00100049 1e-05
-0.051184 0.0010005 1e-05
-0.052098 0.00100052 1e-05
-0.053012 0.00100053 1e-05
-0.053926 0.00100055 1e-05
-0.05484 0.00100056 1e-05
-0.055754 0.00100058 1e-05
-0.056668 0.0010006 1e-05
-0.057582 0.00100061 1e-05
-0.058496 0.00100063 1e-05
-0.05941 0.00100064 1e-05
-0.060324 0.00100066 1e-05
-0.061238 0.00100067 1e-05
-0.062152 0.00100069 1e-05
-0.063066 0.0010007 1e-05
-0.06398 0.00100072 1e-05
-0.064894 0.00100073 1e-05
-0.065808 0.00100075 1e-05
-0.066722 0.00100076 1e-05
-0.067636 0.00100078 1e-05
-0.06855 0.0010008 1e-05
-0.069464 0.00100081 1e-05
-0.070378 0.00100083 1e-05
-0.071292 0.00100084 1e-05
-0.072206 0.00100086 1e-05
-0.07312 0.00100087 1e-05
-0.074034 0.00100089 1e-05
-0.074948 0.0010009 1e-05
-0.075862 0.00100092 1e-05
-0.076776 0.00100094 1e-05
-0.07769 0.00100095 1e-05
-0.078604 0.00100097 1e-05
-0.079518 0.00100098 1e-05
-0.080432 0.001001 1e-05
-0.081346 0.00100102 1e-05
-0.08226 0.00100103 1e-05
-0.083174 0.00100105 1e-05
-0.084088 0.00100106 1e-05
-0.085002 0.00100108 1e-05
-0.085916 0.0010011 1e-05
-0.08683 0.00100111 1e-05
-0.087744 0.00100113 1e-05
-0.088658 0.00100114 1e-05
-0.089572 0.00100116 1e-05
-0.090486 0.00100118 1e-05
-0.0914 0.00100119 1e-05
-0.092314 0.00100121 1e-05
-0.093228 0.00100122 1e-05
-0.094142 0.00100124 1e-05
-0.095056 0.00100126 1e-05
-0.09597 0.00100127 1e-05
-0.096884 0.00100129 1e-05
-0.097798 0.00100131 1e-05
-0.098712 0.00100132 1e-05
-0.099626 0.00100134 1e-05
-0.10054 0.00100136 1e-05
-0.101454 0.00100137 1e-05
-0.102368 0.00100139 1e-05
-0.103282 0.00100141 1e-05
-0.104196 0.00100142 1e-05
-0.10511 0.00100144 1e-05
-0.106024 0.00100146 1e-05
-0.106938 0.00100147 1e-05
-0.107852 0.00100149 1e-05
-0.108766 0.00100151 1e-05
-0.10968 0.00100152 1e-05
-0.110594 0.00100154 1e-05
-0.111508 0.00100156 1e-05
-0.112422 0.00100157 1e-05
-0.113336 0.00100159 1e-05
-0.11425 0.00100161 1e-05
-0.115164 0.00100163 1e-05
-0.116078 0.00100164 1e-05
-0.116992 0.00100166 1e-05
-0.117906 0.00100168 1e-05
-0.11882 0.00100169 1e-05
-0.119734 0.00100171 1e-05
-0.120648 0.00100173 1e-05
-0.121562 0.00100175 1e-05
-0.122476 0.00100176 1e-05
-0.12339 0.00100178 1e-05
-0.124304 0.0010018 1e-05
-0.125218 0.00100182 1e-05
-0.126132 0.00100183 1e-05
-0.127046 0.00100185 1e-05
-0.12796 0.00100187 1e-05
-0.128874 0.00100189 1e-05
-0.129788 0.0010019 1e-05
-0.130702 0.00100192 1e-05
-0.131616 0.00100194 1e-05
-0.13253 0.00100196 1e-05
-0.133444 0.00100198 1e-05
-0.134358 0.00100199 1e-05
-0.135272 0.00100201 1e-05
-0.136186 0.00100203 1e-05
-0.1371 0.00100205 1e-05
-0.138014 0.00100206 1e-05
-0.138928 0.00100208 1e-05
-0.139842 0.0010021 1e-05
-0.140756 0.00100212 1e-05
-0.14167 0.00100214 1e-05
-0.142584 0.00100216 1e-05
-0.143498 0.00100217 1e-05
-0.144412 0.00100219 1e-05
-0.145326 0.00100221 1e-05
-0.14624 0.00100223 1e-05
-0.147154 0.00100225 1e-05
-0.148068 0.00100226 1e-05
-0.148982 0.00100228 1e-05
-0.149896 0.0010023 1e-05
-0.15081 0.00100232 1e-05
-0.151724 0.00100234 1e-05
-0.152638 0.00100236 1e-05
-0.153552 0.00100238 1e-05
-0.154466 0.00100239 1e-05
-0.15538 0.00100241 1e-05
-0.156294 0.00100243 1e-05
-0.157208 0.00100245 1e-05
-0.158122 0.00100247 1e-05
-0.159036 0.00100249 1e-05
-0.15995 0.00100251 1e-05
-0.160864 0.00100252 1e-05
-0.161778 0.00100254 1e-05
-0.162692 0.00100256 1e-05
-0.163606 0.00100258 1e-05
-0.16452 0.0010026 1e-05
-0.165434 0.00100262 1e-05
-0.166348 0.00100264 1e-05
-0.167262 0.00100265 1e-05
-0.168176 0.00100267 1e-05
-0.16909 0.00100269 1e-05
-0.170004 0.00100271 1e-05
-0.170918 0.00100273 1e-05
-0.171832 0.00100275 1e-05
-0.172746 0.00100277 1e-05
-0.17366 0.00100279 1e-05
-0.174574 0.00100281 1e-05
-0.175488 0.00100282 1e-05
-0.176402 0.00100284 1e-05
-0.177316 0.00100286 1e-05
-0.17823 0.00100288 1e-05
-0.179144 0.0010029 1e-05
-0.180058 0.00100292 1e-05
-0.180972 0.00100294 1e-05
-0.181886 0.00100296 1e-05
-0.1828 0.00100298 1e-05
-0.183714 0.001003 1e-05
-0.184628 0.00100302 1e-05
-0.185542 0.00100303 1e-05
-0.186456 0.00100305 1e-05
-0.18737 0.00100307 1e-05
-0.188284 0.00100309 1e-05
-0.189198 0.00100311 1e-05
-0.190112 0.00100313 1e-05
-0.191026 0.00100315 1e-05
-0.19194 0.00100317 1e-05
-0.192854 0.00100319 1e-05
-0.193768 0.00100321 1e-05
-0.194682 0.00100323 1e-05
-0.195596 0.00100325 1e-05
-0.19651 0.00100327 1e-05
-0.197424 0.00100329 1e-05
-0.198338 0.0010033 1e-05
-0.199252 0.00100332 1e-05
-0.200166 0.00100334 1e-05
-0.20108 0.00100336 1e-05
-0.201994 0.00100338 1e-05
-0.202908 0.0010034 1e-05
-0.203822 0.00100342 1e-05
-0.204736 0.00100344 1e-05
-0.20565 0.00100346 1e-05
-0.206564 0.00100348 1e-05
-0.207478 0.0010035 1e-05
-0.208392 0.00100352 1e-05
-0.209306 0.00100354 1e-05
-0.21022 0.00100356 1e-05
-0.211134 0.00100358 1e-05
-0.212048 0.0010036 1e-05
-0.212962 0.00100362 1e-05
-0.213876 0.00100364 1e-05
-0.21479 0.00100365 1e-05
-0.215704 0.00100367 1e-05
-0.216618 0.00100369 1e-05
-0.217532 0.00100371 1e-05
-0.218446 0.00100373 1e-05
-0.21936 0.00100375 1e-05
-0.220274 0.00100377 1e-05
-0.221188 0.00100379 1e-05
-0.222102 0.00100381 1e-05
-0.223016 0.00100383 1e-05
-0.22393 0.00100385 1e-05
-0.224844 0.00100387 1e-05
-0.225758 0.00100389 1e-05
-0.226672 0.00100391 1e-05
-0.227586 0.00100393 1e-05
-0.2285 0.00100395 1e-05
-0.229414 0.00100397 1e-05
-0.230328 0.00100399 1e-05
-0.231242 0.00100401 1e-05
-0.232156 0.00100403 1e-05
-0.23307 0.00100405 1e-05
-0.233984 0.00100407 1e-05
-0.234898 0.00100409 1e-05
-0.235812 0.00100411 1e-05
-0.236726 0.00100413 1e-05
-0.23764 0.00100415 1e-05
-0.238554 0.00100417 1e-05
-0.239468 0.00100419 1e-05
-0.240382 0.00100421 1e-05
-0.241296 0.00100423 1e-05
-0.24221 0.00100425 1e-05
-0.243124 0.00100427 1e-05
-0.244038 0.00100429 1e-05
-0.244952 0.00100431 1e-05
-0.245866 0.00100433 1e-05
-0.24678 0.00100435 1e-05
-0.247694 0.00100437 1e-05
-0.248608 0.00100439 1e-05
-0.249522 0.00100441 1e-05
-0.250436 0.00100443 1e-05
-0.25135 0.00100445 1e-05
-0.252264 0.00100448 1e-05
-0.253178 0.0010045 1e-05
-0.254092 0.00100452 1e-05
-0.255006 0.00100454 1e-05
-0.25592 0.00100456 1e-05
-0.256834 0.00100458 1e-05
-0.257748 0.0010046 1e-05
-0.258662 0.00100462 1e-05
-0.259576 0.00100464 1e-05
-0.26049 0.00100466 1e-05
-0.261404 0.00100469 1e-05
-0.262318 0.00100471 1e-05
-0.263232 0.00100473 1e-05
-0.264146 0.00100475 1e-05
-0.26506 0.00100477 1e-05
-0.265974 0.00100479 1e-05
-0.266888 0.00100481 1e-05
-0.267802 0.00100484 1e-05
-0.268716 0.00100486 1e-05
-0.26963 0.00100488 1e-05
-0.270544 0.0010049 1e-05
-0.271458 0.00100493 1e-05
-0.272372 0.00100495 1e-05
-0.273286 0.00100497 1e-05
-0.2742 0.00100499 1e-05
-0.275114 0.00100502 1e-05
-0.276028 0.00100504 1e-05
-0.276942 0.00100506 1e-05
-0.277856 0.00100509 1e-05
-0.27877 0.00100511 1e-05
-0.279684 0.00100513 1e-05
-0.280598 0.00100516 1e-05
-0.281512 0.00100518 1e-05
-0.282426 0.0010052 1e-05
-0.28334 0.00100523 1e-05
-0.284254 0.00100525 1e-05
-0.285168 0.00100528 1e-05
-0.286082 0.0010053 1e-05
-0.286996 0.00100533 1e-05
-0.28791 0.00100535 1e-05
-0.288824 0.00100538 1e-05
-0.289738 0.0010054 1e-05
-0.290652 0.00100543 1e-05
-0.291566 0.00100546 1e-05
-0.29248 0.00100548 1e-05
-0.293394 0.00100551 1e-05
-0.294308 0.00100554 1e-05
-0.295222 0.00100556 1e-05
-0.296136 0.00100559 1e-05
-0.29705 0.00100562 1e-05
-0.297964 0.00100565 1e-05
-0.298878 0.00100567 1e-05
-0.299792 0.0010057 1e-05
-0.300706 0.00100573 1e-05
-0.30162 0.00100576 1e-05
-0.302534 0.00100579 1e-05
-0.303448 0.00100582 1e-05
-0.304362 0.00100585 1e-05
-0.305276 0.00100588 1e-05
-0.30619 0.00100591 1e-05
-0.307104 0.00100594 1e-05
-0.308018 0.00100597 1e-05
-0.308932 0.00100601 1e-05
-0.309846 0.00100604 1e-05
-0.31076 0.00100607 1e-05
-0.311674 0.00100611 1e-05
-0.312588 0.00100614 1e-05
-0.313502 0.00100617 1e-05
-0.314416 0.00100621 1e-05
-0.31533 0.00100624 1e-05
-0.316244 0.00100628 1e-05
-0.317158 0.00100632 1e-05
-0.318072 0.00100635 1e-05
-0.318986 0.00100639 1e-05
-0.3199 0.00100643 1e-05
-0.320814 0.00100647 1e-05
-0.321728 0.00100651 1e-05
-0.322642 0.00100655 1e-05
-0.323556 0.00100659 1e-05
-0.32447 0.00100663 1e-05
-0.325384 0.00100667 1e-05
-0.326298 0.00100671 1e-05
-0.327212 0.00100675 1e-05
-0.328126 0.0010068 1e-05
-0.32904 0.00100684 1e-05
-0.329954 0.00100689 1e-05
-0.330868 0.00100693 1e-05
-0.331782 0.00100698 1e-05
-0.332696 0.00100703 1e-05
-0.33361 0.00100708 1e-05
-0.334524 0.00100713 1e-05
-0.335438 0.00100718 1e-05
-0.336352 0.00100723 1e-05
-0.337266 0.00100728 1e-05
-0.33818 0.00100734 1e-05
-0.339094 0.00100739 1e-05
-0.340008 0.00100745 1e-05
-0.340922 0.0010075 1e-05
-0.341836 0.00100756 1e-05
-0.34275 0.00100762 1e-05
-0.343664 0.00100768 1e-05
-0.344578 0.00100774 1e-05
-0.345492 0.0010078 1e-05
-0.346406 0.00100786 1e-05
-0.34732 0.00100793 1e-05
-0.348234 0.00100799 1e-05
-0.349148 0.00100806 1e-05
-0.350062 0.00100813 1e-05
-0.350976 0.0010082 1e-05
-0.35189 0.00100827 1e-05
-0.352804 0.00100834 1e-05
-0.353718 0.00100842 1e-05
-0.354632 0.0010085 1e-05
-0.355546 0.00100857 1e-05
-0.35646 0.00100865 1e-05
-0.357374 0.00100873 1e-05
[...]
POINT_DATA 32640
 FIELD attributes 2
p 1 32640 float
-186.071 -186.066 -186.061 -186.056 -186.051 -186.046 -186.037 -186.027 -186.017 -186.007 -185.998 -185.988 -185.978 -185.968 -185.959 -185.949 -185.939 -185.929 -185.92 -185.91 -185.9 -185.89 -185.881 -185.871 -185.861 -185.851 -185.842 -185.832 -185.822 -185.812 -185.802 -185.793 -185.783 -185.773 -185.763 -185.754 -185.744 -185.734 -185.724 -185.714 -185.705 -185.695 -185.685 -185.675 -185.665 -185.656 -185.646 -185.636 -185.626 -185.616 -185.606 -185.597 -185.587 -185.577 -185.567 -185.557 -185.547 -185.538 -185.528 -185.518 -185.508 -185.498 -185.488 -185.479 -185.469 -185.459 -185.449 -185.439 -185.429 -185.419 -185.41 -185.4 -185.39 -185.38 -185.37 -185.36 -185.35 -185.34 -185.331 -185.321 -185.311 -185.301 -185.291 -185.281 -185.271 -185.261 -185.252 -185.242 -185.232 -185.222 -185.212 -185.202 -185.192 -185.182 -185.172 -185.162 -185.152 -185.143 -185.133 -185.123 -185.113 -185.103 -185.093 -185.083 -185.073 -185.063 -185.053 -185.043 -185.033 -185.023 -185.013 -185.004 -184.994 -184.984 -184.974 -184.964 -184.954 -184.944 -184.934 -184.924 -184.914 -184.904 -184.894 -184.884 -184.874 -184.864 -184.854 -184.844 -184.834 -184.824 -184.814 -184.804 -184.794 -184.784 -184.774 -184.764 -184.754 -184.744 -184.734 -184.724 -184.714 -184.704 -184.694 -184.684 -184.674 -184.664 -184.654 -184.644 -184.634 -184.624 -184.614 -184.604 -184.594 -184.584 -184.574 -184.564 -184.554 -184.544 -184.534 -184.524 -184.514 -184.504 -184.494 -184.484 -184.474 -184.463 -184.453 -184.443 -184.433 -184.423 -184.413 -184.403 -184.393 -184.383 -184.373 -184.363 -184.353 -184.343 -184.332 -184.322 -184.312 -184.302 -184.292 -184.282 -184.272 -184.262 -184.252 -184.241 -184.231 -184.221 -184.211 -184.201 -184.191 -184.18 -184.17 -184.16 -184.15 -184.14 -184.13 -184.119 -184.109 -184.099 -184.089 -184.078 -184.068 -184.058 -184.048 -184.037 -184.027 -184.017 -184.006 -183.996 -183.986 -183.976 -183.965 -183.955 -183.944 -183.934 -183.924 -183.913 -183.903 -183.893 -183.882 -183.872 -183.861 -183.851 -183.84 -183.83 -183.819 -183.809 -183.798 -183.788 -183.777 -183.766 -183.756 -183.745 -183.735 -183.724 -183.713 -183.702 -183.692 -183.681 -183.67 -183.659 -183.649 -183.638 -183.627 -183.616 -183.605 -183.594 -183.583 -183.572 -183.561 -183.55 -183.538 -183.527 -183.516 -183.505 -183.493 -183.482 -183.47 -183.459 -183.447 -183.436 -183.424 -183.412 -183.401 -183.389 -183.377 -183.365 -183.353 -183.341 -183.329 -183.317 -183.305 -183.292 -183.28 -183.268 -183.255 -183.242 -183.23 -183.217 -183.204 -183.191 -183.178 -183.165 -183.152 -183.138 -183.125 -183.111 -183.098 -183.084 -183.07 -183.056 -183.042 -183.028 -183.013 -182.999 -182.984 -182.969 -182.955 -182.939 -182.924 -182.909 -182.893 -182.878 -182.862 -182.846 -182.83 -182.813 -182.796 -182.779 -182.763 -182.745 -182.728 -182.71 -182.692 -182.674 -182.656 -182.637 -182.618 -182.599 -182.58 -182.56 -182.54 -182.52 -182.499 -182.478 -182.457 -182.435 -182.414 -182.392 -182.369 -182.346 -182.323 -182.299 -182.275 -182.251 -182.227 -182.201 -182.175 -182.149 -182.123 -182.096 -182.069 -182.041 -182.012 -181.984 -181.954 -181.924 -181.894 -181.862 -181.831 -181.799 -181.766 -181.732 -181.698 -181.664 -181.629 -181.592 -181.555 -181.518 -181.48 -181.441 -181.401 -181.36 -181.319 -181.277 -181.234 -181.19 -181.145 -181.099 -181.053 -181.006 -180.956 -180.907 -180.857 -180.806 -180.753 -180.699 -180.644 -180.588 -180.532 -180.474 -180.413 -180.353 -180.291 -180.229 -180.164 -180.097 -180.03 -179.961 -179.893 -179.821 -179.747 -179.672 -179.596 -179.52 -179.441 -179.358 -179.276 -179.192 -179.107 -179.02 -178.928 -178.837 -178.744 -178.65 -178.553 -178.452 -178.352 -178.248 -178.145 -178.038 -177.926 -177.815 -177.701 -177.587 -177.469 -177.346 -177.223 -177.098 -176.972 -176.842 -176.707 -176.571 -176.433 -176.295 -176.152 -176.003 -175.855 -175.703 -175.552 -175.395 -175.232 -175.07 -174.904 -174.738 -174.566 -174.388 -174.211 -174.03 -173.849 -173.661 -173.468 -173.275 -173.078 -172.881 -172.678 -172.468 -172.259 -172.045 -171.831 -171.611 -171.385 -171.158 -170.927 -170.697 -170.459 -170.215 -169.971 -169.722 -169.474 -169.219 -168.957 -168.695 -168.429 -168.162 -167.889 -167.61 -167.331 -167.047 -166.763 -166.473 -166.177 -165.88 -165.579 -165.279 -164.962 -164.63 -164.298 -163.962 -163.625 -163.272 -162.9 -162.529 -162.154 -161.779 -161.395 -161.004 -160.612 -160.217 -159.822 -159.42 -159.009 -158.599 -158.185 -157.771 -157.35 -156.922 -156.494 -156.063 -155.632 -155.194 -154.75 -154.306 -153.859 -153.412 -152.959 -152.5 -152.042 -151.58 -151.119 -150.653 -150.182 -149.71 -149.237 -148.763 -148.285 -147.803 -147.32 -146.836 -146.352 -145.864 -145.372 -144.881 -144.388 -143.894 -143.398 -142.899 -142.401 -141.9 -141.4 -140.897 -140.392 -139.888 -139.381 -138.875 -138.368 -137.859 -137.35 -136.84 -136.33 -135.819 -135.307 -134.794 -134.282 -133.769 -133.256 -132.742 -132.229 -131.715 -131.201 -130.687 -130.173 -129.658 -129.144 -128.63 -128.116 -127.603 -127.09 -126.576 -126.063 -125.55 -125.038 -124.527 -124.015 -123.503 -122.993 -122.484 -121.974 -121.465 -120.956 -120.449 -119.943 -119.437 -118.931 -118.425 -117.921 -117.419 -116.916 -116.415 -115.913 -115.413 -114.915 -114.417 -113.92 -113.422 -112.927 -112.434 -111.941 -111.448 -110.956 -110.465 -109.977 -109.489 -109.002 -108.515 -108.03 -107.547 -107.064 -106.583 -106.101 -105.622 -105.145 -104.668 -104.192 -103.716 -103.243 -102.772 -102.301 -101.831 -101.361 -100.893 -100.428 -99.9635 -99.4996 -99.0358 -98.5745 -98.1158 -97.6571 -97.1994 -96.7418 -96.2868 -95.8343 -95.3818 -94.9305 -94.4792 -94.0304 -93.5843 -93.1382 -92.6932 -92.2482 -91.8058 -91.366 -90.9262 -90.4875 -90.0489 -89.6128 -89.1794 -88.7459 -88.3136 -87.8814 -87.4516 -87.0245 -86.5974 -86.1714 -85.7455 -85.3221 -84.9012 -84.4804 -84.0607 -83.6411 -83.224 -82.8094 -82.3948 -81.9814 -81.568 -81.1571 -80.7487 -80.3404 -79.9332 -79.526 -79.1213 -78.719 -78.3168 -77.9157 -77.5147 -77.1161 -76.7199 -76.3237 -75.9288 -75.5338 -75.1412 -74.751 -74.3609 -73.9719 -73.5829 -73.1963 -72.812 -72.4277 -72.0447 -71.6616 -71.2808 -70.9024 -70.524 -70.1467 -69.7695 -69.3945 -69.0219 -68.6492 -68.2777 -67.9062 -67.5369 -67.1699 -66.8029 -66.437 -66.0712 -65.7075 -65.3461 -64.9847 -64.6244 -64.2641 -63.906 -63.55 -63.1941 -62.8393 -62.4845 -62.1318 -61.7812 -61.4306 -61.0812 -60.7318 -60.3844 -60.0392 -59.6939 -59.3497 -59.0056 -58.6635 -58.3234 -57.9834 -57.6444 -57.3055 -56.9685 -56.6336 -56.2986 -55.9648 -55.6309 -55.299 -54.9691 -54.6392 -54.3104 -53.9815 -53.6546 -53.3297 -53.0047 -52.6808 -52.3568 -52.0348 -51.7147 -51.3946 -51.0755 -50.7564 -50.4392 -50.1238 -49.8085 -49.4942 -49.1798 -48.8673 -48.5567 -48.246 -47.9363 -47.6267 -47.3188 -47.0127 -46.7067 -46.4016 -46.0965 -45.7932 -45.4916 -45.1901 -44.8895 -44.5889 -44.29 -43.9929 -43.6958 -43.3996 -43.1035 -42.809 -42.5162 -42.2235 -41.9316 -41.6398 -41.3496 -41.0611 -40.7726 -40.485 -40.1975 -39.9115 -39.6272 -39.3429 -39.0595 -38.7761 -38.4943 -38.2141 -37.9339 -37.6545 -37.3752 -37.0975 -36.8213 -36.5451 -36.2698 -35.9945 -35.7208 -35.4486 -35.1764 -34.905 -34.6337 -34.3638 -34.0955 -33.8272 -33.5597 -33.2922 -33.0262 -32.7617 -32.4972 -32.2335 -31.9698 -31.7076 -31.4468 -31.186 -30.9261 -30.6661 -30.4076 -30.1505 -29.8934 -29.6371 -29.3808 -29.1259 -28.8724 -28.6189 -28.3662 -28.1135 -27.8621 -27.6122 -27.3622 -27.113 -26.8638 -26.616 -26.3695 -26.123 -25.8773 -25.6316 -25.3872 -25.1441 -24.9011 -24.6587 -24.4164 -24.1754 -23.9357 -23.6959 -23.457 -23.218 -22.9803 -22.7438 -22.5074 -22.2717 -22.036 -21.8015 -21.5683 -21.3351 -21.1026 -20.8701 -20.6389 -20.4089 -20.1788 -19.9495 -19.7202 -19.4921 -19.2651 -19.0382 -18.812 -18.5858 -18.3607 -18.1369 -17.913 -17.6899 -17.4667 -17.2447 -17.0238 -16.803 -16.5828 -16.3627 -16.1436 -15.9257 -15.7078 -15.4906 -15.2734 -15.0573 -14.8423 -14.6273 -14.4129 -14.1986 -13.9854 -13.7732 -13.5611 -13.3496 -13.1381 -12.9277 -12.7183 -12.509 -12.3003 -12.0916 -11.8839 -11.6773 -11.4708 -11.2648 -11.0588 -10.8539 -10.65 -10.4462 -10.2429 -10.0396 -9.8374 -9.63618 -9.43496 -9.23435 -9.03374 -8.83413 -8.63553 -8.43692 -8.23892 -8.04091 -7.84389 -7.64785 -7.45182 -7.25638 -7.06093 -6.86645 -6.67295 -6.47944 -6.28651 -6.09359 -5.90161 -5.71059 -5.51956 -5.32911 -5.13867 -4.94915 -4.76057 -4.57198 -4.38397 -4.19596 -4.00886 -3.82268 -3.6365 -3.45088 -3.26527 -3.08055 -2.89673 -2.71291 -2.52965 -2.34639 -2.16401 -1.98252 -1.80102 -1.62008 -1.43913 -1.25905 -1.07985 -0.90064 -0.721975 -0.543309 -0.365495 -0.188536 -0.011578 0.164845 0.341269 0.516855 0.691601 0.866346 1.04056 1.21478 1.38817 1.56074 1.73331 1.90536 2.0774 2.24864 2.41907 2.58949 2.7594 2.92931 3.09843 3.26674 3.43506 3.60287 3.77067 3.9377 4.10394 4.27018 4.43592 4.60166 4.76663 4.93083 5.09503 5.25872 5.42242 5.58537 5.74756 5.90975 6.07144 6.23313 6.39408 6.55429 6.7145 6.87422 7.03394 7.19293 7.35119 7.50944 7.66722 7.82499 7.98205 8.13839 8.29472 8.45058 8.60644 8.76159 8.91604 9.07049 9.22445 9.37842 9.5317 9.68429 9.83687 9.98898 10.1411 10.2925 10.4433 10.594 10.7443 10.8946 11.0442 11.1931 11.3421 11.4905 11.639 11.7868 11.934 12.0812 12.2278 12.3745 12.5206 12.666 12.8114 12.9563 13.1013 13.2456 13.3892 13.5329 13.6761 13.8193 13.9619 14.1039 14.2459 14.3874 14.5289 14.6698 14.8101 14.9503 15.0902 15.23 15.3692 15.5078 15.6465 15.7846 15.9228 16.0604 16.1974 16.3343 16.4709 16.6074 16.7433 16.8787 17.0141 17.149 17.2839 17.4183 17.5521 17.6858 17.8192 17.9525 18.0852 18.2174 18.3497 18.4814 18.6132 18.7444 18.875 19.0057 19.1359 19.2661 19.3957 19.5248 19.6539 19.7826 19.9113 20.0394 20.167 20.2946 20.4217 20.5489 20.6755 20.8016 20.9277 21.0534 21.179 21.3041 21.4288 21.5534 21.6776 21.8017 21.9254 22.0485 22.1717 22.2944 22.4171 22.5393 22.661 22.7827 22.904 23.0252 23.146 23.2662 23.3865 23.5063 23.6261 23.7455 23.8643 23.9832 24.1016 24.22 24.3379 24.4554 24.5728 24.6898 24.8068 24.9233 25.0394 25.1554 25.271 25.3866 25.5018 25.6165 25.7311 25.8454 25.9596 26.0734 26.1867 26.3 26.4128 26.5257 26.6381 26.7501 26.862 26.9735 27.085 27.1961 27.3067 27.4173 27.5275 27.6376 27.7474 27.8566 27.9659 28.0747 28.1836 28.292 28.3999 28.5079 28.6154 28.7229 28.8299 28.9366 29.0432 29.1494 29.2555 29.3613 29.4666 29.572 29.6768 29.7817 29.8861 29.9901 30.0942 30.1977 30.3012 30.4044 30.5071 30.6099 30.7121 30.8143 30.9162 31.0176 31.1191 31.22 31.3209 31.4215 31.5216 31.6218 31.7214 31.8211 31.9203 32.0192 32.1181 32.2164 32.3148 32.4128 32.5104 32.608 32.705 32.8021 32.8988 32.9951 33.0914 33.1872 33.283 33.3784 33.4734 33.5685 33.663 33.7575 33.8516 33.9454 34.0391 34.1323 34.2256 34.3184 34.4109 34.5034 34.5953 34.6872 34.7788 34.87 34.9613 35.0519 35.1425 35.2328 35.3227 35.4127 35.502 35.5913 35.6803 35.769 35.8576 35.9456 36.0337 36.1214 36.2087 36.2961 36.3828 36.4695 36.5559 36.6419 36.728 36.8134 36.8988 36.9839 37.0686 37.1534 37.2374 37.3215 37.4052 37.4887 37.5721 37.6549 37.7376 37.82 37.9021 37.9842 38.0656 38.147 38.2281 38.3089 38.3897 38.4697 38.5498 38.6295 38.709 38.7884 38.8671 38.9458 39.0241 39.1023 39.1804 39.2577 39.335 39.412 39.4887 39.5654 39.6414 39.7173 39.7929 39.8682 39.9436 40.0181 40.0926 40.1668 40.2407 40.3147 40.3877 40.4608 40.5336 40.6061 40.6786 40.7502 40.8218 40.8932 40.9643 41.0353 41.1055 41.1756 41.2454 41.315 41.3847 41.4533 41.5219 41.5903 41.6584 41.7265 41.7936 41.8607 41.9276 41.9942 42.0609 42.1264 42.192 42.2573 42.3225 42.3876 42.4516 42.5156 42.5794 42.643 42.7066 42.769 42.8314 42.8936 42.9557 43.0177 43.0785 43.1393 43.1999 43.2603 43.3207 43.3799 43.4391 43.498 43.5568 43.6156 43.6731 43.7306 43.7879 43.845 43.9021 43.9579 44.0136 44.0692 44.1246 44.18 44.2341 44.2881 44.3419 44.3956 44.4493 44.5016 44.5538 44.6059 44.6579 44.7098 44.7603 44.8108 44.8611 44.9113 44.9615 45.0101 45.0587 45.1072 45.1556 45.204 45.2508 45.2976 45.3443 45.3908 45.4373 45.4822 45.5271 45.5719 45.6165 45.6612 45.7041 45.7471 45.7899 45.8326 45.8754 45.9163 45.9573 45.9982 46.039 46.0797 46.1187 46.1577 46.1966 46.2354 46.2742 46.3111 46.3481 46.385 46.4218 46.4586 46.4935 46.5284 46.5632 46.598 46.6328 46.6656 46.6984 46.7311 46.7638 46.7965 46.8272 46.8579 46.8885 46.9191 46.9497 46.9782 47.0067 47.0352 47.0636 47.0921 47.1184 47.1448 47.1711 47.1974 47.2237 47.2479 47.272 47.2961 47.3203 47.3444 47.3663 47.3882 47.4101 47.432 47.4539 47.4736 47.4932 47.5129 47.5326 47.5523 47.5697 47.587 47.6044 47.6219 47.6393 47.6544 47.6694 47.6845 47.6997 47.7148 47.7276 47.7403 47.7531 47.766 47.7789 47.7893 47.7998 47.8103 47.821 47.8316 47.8398 47.848 47.8562 47.8645 47.8728 47.8786 47.8844 47.8902 47.8959 47.9016 47.9048 47.908 47.9111 47.9142 47.9173 47.9179 47.9185 47.9194 47.9206 47.9219