# vtk DataFile Version 2.0
track0
ASCII
DATASET POLYDATA
POINTS 32640 float
-0.0205 0.001 1e-05
-0.02097 0.00100001 1e-05
-0.02144 0.00100002 1e-05
-0.02191 0.00100002 1e-05
-0.02238 0.00100003 1e-05
-0.02285 0.00100004 1e-05
-0.023764 0.00100005 1e-05
-0.024678 0.00100007 1e-05
-0.025592 0.00100008 1e-05
-0.026506 0.0010001 1e-05
-0.02742 0.00100011 1e-05
-0.028334 0.00100013 1e-05
-0.029248 0.00100014 1e-05
-0.030162 0.00100016 1e-05
-0.031076 0.00100017 1e-05
-0.03199 0.00100019 1e-05
-0.032904 0.0010002 1e-05
-0.033818 0.00100022 1e-05
-0.034732 0.00100023 1e-05
-0.035646 0.00100025 1e-05
-0.03656 0.00100026 1e-05
-0.037474 0.00100028 1e-05
-0.038388 0.00100029 1e-05
-0.039302 0.00100031 1e-05
-0.040216 0.00100032 1e-05
-0.04113 0.00100034 1e-05
-0.042044 0.00100035 1e-05
-0.042958 0.00100037 1e-05
-0.043872 0.00100038 1e-05
-0.044786 0.0010004 1e-05
-0.0457 0.00100041 1e-05
-0.046614 0.00100043 1e-05
-0.047528 0.00100044 1e-05
-0.048442 0.00100046 1e-05
-0.049356 0.00100047 1e-05
-0.05027 0.00100049 1e-05
-0.051184 0.0010005 1e-05
-0.052098 0.00100052 1e-05
-0.053012 0.00100053 1e-05
-0.053926 0.00100055 1e-05
-0.05484 0.00100056 1e-05
-0.055754 0.00100058 1e-05
-0.056668 0.0010006 1e-05
-0.057582 0.00100061 1e-05
-0.058496 0.00100063 1e-05
-0.05941 0.00100064 1e-05
-0.060324 0.00100066 1e-05
-0.061238 0.00100067 1e-05
-0.062152 0.00100069 1e-05
-0.063066 0.0010007 1e-05
-0.06398 0.00100072 1e-05
-0.064894 0.00100073 1e-05
-0.065808 0.00100075 1e-05
-0.066722 0.00100076 1e-05
-0.067636 0.00100078 1e-05
-0.06855 0.0010008 1e-05
-0.069464 0.00100081 1e-05
-0.070378 0.00100083 1e-05
-0.071292 0.00100084 1e-05
-0.072206 0.00100086 1e-05
-0.07312 0.00100087 1e-05
-0.074034 0.00100089 1e-05
-0.074948 0.0010009 1e-05
-0.075862 0.00100092 1e-05
-0.076776 0.00100094 1e-05
-0.07769 0.00100095 1e-05
-0.078604 0.00100097 1e-05
-0.079518 0.00100098 1e-05
-0.080432 0.001001 1e-05
-0.081346 0.00100102 1e-05
-0.08226 0.00100103 1e-05
-0.083174 0.00100105 1e-05
-0.084088 0.00100106 1e-05
-0.085002 0.00100108 1e-05
-0.085916 0.0010011 1e-05
-0.08683 0.00100111 1e-05
-0.087744 0.00100113 1e-05
-0.088658 0.00100114 1e-05
-0.089572 0.00100116 1e-05
-0.090486 0.00100118 1e-05
-0.0914 0.00100119 1e-05
-0.092314 0.00100121 1e-05
-0.093228 0.00100122 1e-05
-0.094142 0.00100124 1e-05
-0.095056 0.00100126 1e-05
-0.09597 0.00100127 1e-05
-0.096884 0.00100129 1e-05
-0.097798 0.00100131 1e-05
-0.098712 0.00100132 1e-05
-0.099626 0.00100134 1e-05
-0.10054 0.00100136 1e-05
-0.101454 0.00100137 1e-05
-0.102368 0.00100139 1e-05
-0.103282 0.00100141 1e-05
-0.104196 0.00100142 1e-05
-0.10511 0.00100144 1e-05
-0.106024 0.00100146 1e-05
-0.106938 0.00100147 1e-05
-0.107852 0.00100149 1e-05
-0.108766 0.00100151 1e-05
-0.10968 0.00100152 1e-05
-0.110594 0.00100154 1e-05
-0.111508 0.00100156 1e-05
-0.112422 0.00100157 1e-05
-0.113336 0.00100159 1e-05
-0.11425 0.00100161 1e-05
-0.115164 0.00100163 1e-05
-0.116078 0.00100164 1e-05
-0.116992 0.00100166 1e-05
-0.117906 0.00100168 1e-05
-0.11882 0.00100169 1e-05
-0.119734 0.00100171 1e-05
-0.120648 0.00100173 1e-05
-0.121562 0.00100175 1e-05
-0.122476 0.00100176 1e-05
-0.12339 0.00100178 1e-05
-0.124304 0.0010018 1e-05
-0.125218 0.00100182 1e-05
-0.126132 0.00100183 1e-05
-0.127046 0.00100185 1e-05
-0.12796 0.00100187 1e-05
-0.128874 0.00100189 1e-05
-0.129788 0.0010019 1e-05
-0.130702 0.00100192 1e-05
-0.131616 0.00100194 1e-05
-0.13253 0.00100196 1e-05
-0.133444 0.00100198 1e-05
-0.134358 0.00100199 1e-05
-0.135272 0.00100201 1e-05
-0.136186 0.00100203 1e-05
-0.1371 0.00100205 1e-05
-0.138014 0.00100206 1e-05
-0.138928 0.00100208 1e-05
-0.139842 0.0010021 1e-05
-0.140756 0.00100212 1e-05
-0.14167 0.00100214 1e-05
-0.142584 0.00100216 1e-05
-0.143498 0.00100217 1e-05
-0.144412 0.00100219 1e-05
-0.145326 0.00100221 1e-05
-0.14624 0.00100223 1e-05
-0.147154 0.00100225 1e-05
-0.148068 0.00100226 1e-05
-0.148982 0.00100228 1e-05
-0.149896 0.0010023 1e-05
-0.15081 0.00100232 1e-05
-0.151724 0.00100234 1e-05
-0.152638 0.00100236 1e-05
-0.153552 0.00100238 1e-05
-0.154466 0.00100239 1e-05
-0.15538 0.00100241 1e-05
-0.156294 0.00100243 1e-05
-0.157208 0.00100245 1e-05
-0.158122 0.00100247 1e-05
-0.159036 0.00100249 1e-05
-0.15995 0.00100251 1e-05
-0.160864 0.00100252 1e-05
-0.161778 0.00100254 1e-05
-0.162692 0.00100256 1e-05
-0.163606 0.00100258 1e-05
-0.16452 0.0010026 1e-05
-0.165434 0.00100262 1e-05
-0.166348 0.00100264 1e-05
-0.167262 0.00100265 1e-05
-0.168176 0.00100267 1e-05
-0.16909 0.00100269 1e-05
-0.170004 0.00100271 1e-05
-0.170918 0.00100273 1e-05
-0.171832 0.00100275 1e-05
-0.172746 0.00100277 1e-05
-0.17366 0.00100279 1e-05
-0.174574 0.00100281 1e-05
-0.175488 0.00100282 1e-05
-0.176402 0.00100284 1e-05
-0.177316 0.00100286 1e-05
-0.17823 0.00100288 1e-05
-0.179144 0.0010029 1e-05
-0.180058 0.00100292 1e-05
-0.180972 0.00100294 1e-05
-0.181886 0.00100296 1e-05
-0.1828 0.00100298 1e-05
-0.183714 0.001003 1e-05
-0.184628 0.00100302 1e-05
-0.185542 0.00100303 1e-05
-0.186456 0.00100305 1e-05
-0.18737 0.00100307 1e-05
-0.188284 0.00100309 1e-05
-0.189198 0.00100311 1e-05
-0.190112 0.00100313 1e-05
-0.191026 0.00100315 1e-05
-0.19194 0.00100317 1e-05
-0.192854 0.00100319 1e-05
-0.193768 0.00100321 1e-05
-0.194682 0.00100323 1e-05
-0.195596 0.00100325 1e-05
-0.19651 0.00100327 1e-05
-0.197424 0.00100329 1e-05
-0.198338 0.0010033 1e-05
-0.199252 0.00100332 1e-05
-0.200166 0.00100334 1e-05
-0.20108 0.00100336 1e-05
-0.201994 0.00100338 1e-05
-0.202908 0.0010034 1e-05
-0.203822 0.00100342 1e-05
-0.204736 0.00100344 1e-05
-0.20565 0.00100346 1e-05
-0.206564 0.00100348 1e-05
-0.207478 0.0010035 1e-05
-0.208392 0.00100352 1e-05
-0.209306 0.00100354 1e-05
-0.21022 0.00100356 1e-05
-0.211134 0.00100358 1e-05
-0.212048 0.0010036 1e-05
-0.212962 0.00100362 1e-05
-0.213876 0.00100364 1e-05
-0.21479 0.00100365 1e-05
-0.215704 0.00100367 1e-05
-0.216618 0.00100369 1e-05
-0.217532 0.00100371 1e-05
-0.218446 0.00100373 1e-05
-0.21936 0.00100375 1e-05
-0.220274 0.00100377 1e-05
-0.221188 0.00100379 1e-05
-0.222102 0.00100381 1e-05
-0.223016 0.00100383 1e-05
-0.22393 0.00100385 1e-05
-0.224844 0.00100387 1e-05
-0.225758 0.00100389 1e-05
-0.226672 0.00100391 1e-05
-0.227586 0.00100393 1e-05
-0.2285 0.00100395 1e-05
-0.229414 0.00100397 1e-05
-0.230328 0.00100399 1e-05
-0.231242 0.00100401 1e-05
-0.232156 0.00100403 1e-05
-0.23307 0.00100405 1e-05
-0.233984 0.00100407 1e-05
-0.234898 0.00100409 1e-05
-0.235812 0.00100411 1e-05
-0.236726 0.00100413 1e-05
-0.23764 0.00100415 1e-05
-0.238554 0.00100417 1e-05
-0.239468 0.00100419 1e-05
-0.240382 0.00100421 1e-05
-0.241296 0.00100423 1e-05
-0.24221 0.00100425 1e-05
-0.243124 0.00100427 1e-05
-0.244038 0.00100429 1e-05
-0.244952 0.00100431 1e-05
-0.245866 0.00100433 1e-05
-0.24678 0.00100435 1e-05
-0.247694 0.00100437 1e-05
-0.248608 0.00100439 1e-05
-0.249522 0.00100441 1e-05
-0.250436 0.00100443 1e-05
-0.25135 0.00100445 1e-05
-0.252264 0.00100448 1e-05
-0.253178 0.0010045 1e-05
-0.254092 0.00100452 1e-05
-0.255006 0.00100454 1e-05
-0.25592 0.00100456 1e-05
-0.256834 0.00100458 1e-05
-0.257748 0.0010046 1e-05
-0.258662 0.00100462 1e-05
-0.259576 0.00100464 1e-05
-0.26049 0.00100466 1e-05
-0.261404 0.00100469 1e-05
-0.262318 0.00100471 1e-05
-0.263232 0.00100473 1e-05
-0.264146 0.00100475 1e-05
-0.26506 0.00100477 1e-05
-0.265974 0.00100479 1e-05
-0.266888 0.00100481 1e-05
-0.267802 0.00100484 1e-05
-0.268716 0.00100486 1e-05
-0.26963 0.00100488 1e-05
-0.270544 0.0010049 1e-05
-0.271458 0.00100493 1e-05
-0.272372 0.00100495 1e-05
-0.273286 0.00100497 1e-05
-0.2742 0.00100499 1e-05
-0.275114 0.00100502 1e-05
-0.276028 0.00100504 1e-05
-0.276942 0.00100506 1e-05
-0.277856 0.00100509 1e-05
-0.27877 0.00100511 1e-05
-0.279684 0.00100513 1e-05
-0.280598 0.00100516 1e-05
-0.281512 0.00100518 1e-05
-0.282426 0.0010052 1e-05
-0.28334 0.00100523 1e-05
-0.284254 0.00100525 1e-05
-0.285168 0.00100528 1e-05
-0.286082 0.0010053 1e-05
-0.286996 0.00100533 1e-05
-0.28791 0.00100535 1e-05
-0.288824 0.00100538 1e-05
-0.289738 0.0010054 1e-05
-0.290652 0.00100543 1e-05
-0.291566 0.00100546 1e-05
-0.29248 0.00100548 1e-05
-0.293394 0.00100551 1e-05
-0.294308 0.00100554 1e-05
-0.295222 0.00100556 1e-05
-0.296136 0.00100559 1e-05
-0.29705 0.00100562 1e-05
-0.297964 0.00100565 1e-05
-0.298878 0.00100567 1e-05
-0.299792 0.0010057 1e-05
-0.300706 0.00100573 1e-05
-0.30162 0.00100576 1e-05
-0.302534 0.00100579 1e-05
-0.303448 0.00100582 1e-05
-0.304362 0.00100585 1e-05
-0.305276 0.00100588 1e-05
-0.30619 0.00100591 1e-05
-0.307104 0.00100594 1e-05
-0.308018 0.00100597 1e-05
-0.308932 0.00100601 1e-05
-0.309846 0.00100604 1e-05
-0.31076 0.00100607 1e-05
-0.311674 0.00100611 1e-05
-0.312588 0.00100614 1e-05
-0.313502 0.00100617 1e-05
-0.314416 0.00100621 1e-05
-0.31533 0.00100624 1e-05
-0.316244 0.00100628 1e-05
-0.317158 0.00100632 1e-05
-0.318072 0.00100635 1e-05
-0.318986 0.00100639 1e-05
-0.3199 0.00100643 1e-05
-0.320814 0.00100647 1e-05
-0.321728 0.00100651 1e-05
-0.322642 0.00100655 1e-05
-0.323556 0.00100659 1e-05
-0.32447 0.00100663 1e-05
-0.325384 0.00100667 1e-05
-0.326298 0.00100671 1e-05
-0.327212 0.00100675 1e-05
-0.328126 0.0010068 1e-05
-0.32904 0.00100684 1e-05
-0.329954 0.00100689 1e-05
-0.330868 0.00100693 1e-05
-0.331782 0.00100698 1e-05
-0.332696 0.00100703 1e-05
-0.33361 0.00100708 1e-05
-0.334524 0.00100713 1e-05
-0.335438 0.00100718 1e-05
-0.336352 0.00100723 1e-05
-0.337266 0.00100728 1e-05
-0.33818 0.00100734 1e-05
-0.339094 0.00100739 1e-05
-0.340008 0.00100745 1e-05
-0.340922 0.0010075 1e-05
-0.341836 0.00100756 1e-05
-0.34275 0.00100762 1e-05
-0.343664 0.00100768 1e-05
-0.344578 0.00100774 1e-05
-0.345492 0.0010078 1e-05
-0.346406 0.00100786 1e-05
-0.34732 0.00100793 1e-05
-0.348234 0.00100799 1e-05
-0.349148 0.00100806 1e-05
-0.350062 0.00100813 1e-05
-0.350976 0.0010082 1e-05
-0.35189 0.00100827 1e-05
-0.352804 0.00100834 1e-05
-0.353718 0.00100842 1e-05
-0.354632 0.0010085 1e-05
-0.355546 0.00100857 1e-05
-0.35646 0.00100865 1e-05
-0.357374 0.00100873 1e-05
[...]
POINT_DATA 32640
 FIELD attributes 1
U 3 32640 float
23.8372 	-0.000389896 	0 23.837 	-0.000389842 	0 23.8368 	-0.000389855 	0 23.8366 	-0.000389867 	0 23.8364 	-0.00038988 	0 23.8362 	-0.000389892 	0 23.8358 	-0.000389818 	0 23.8353 	-0.000389743 	0 23.8349 	-0.00038969 	0 23.8345 	-0.000389766 	0 23.8342 	-0.000389842 	0 23.8337 	-0.000389824 	0 23.8332 	-0.000389805 	0 23.8328 	-0.000389823 	0 23.8325 	-0.000389968 	0 23.8321 	-0.000390114 	0 23.8316 	-0.000390171 	0 23.8312 	-0.000390229 	0 23.8308 	-0.000390323 	0 23.8304 	-0.000390541 	0 23.8301 	-0.000390759 	0 23.8296 	-0.000390901 	0 23.8291 	-0.000391043 	0 23.8287 	-0.000391223 	0 23.8283 	-0.00039154 	0 23.828 	-0.000391858 	0 23.8275 	-0.000392172 	0 23.827 	-0.000392486 	0 23.8266 	-0.000392747 	0 23.8263 	-0.000393059 	0 23.8259 	-0.000393372 	0 23.8254 	-0.000393726 	0 23.825 	-0.000394081 	0 23.8246 	-0.000394398 	0 23.8242 	-0.000394793 	0 23.8238 	-0.000395189 	0 23.8234 	-0.000395566 	0 23.8229 	-0.000395944 	0 23.8225 	-0.000396318 	0 23.8221 	-0.000396809 	0 23.8218 	-0.000397299 	0 23.8213 	-0.000397689 	0 23.8208 	-0.000398078 	0 23.8204 	-0.000398512 	0 23.82 	-0.000399115 	0 23.8197 	-0.000399718 	0 23.8192 	-0.000400107 	0 23.8187 	-0.000400496 	0 23.8183 	-0.000400985 	0 23.818 	-0.000401701 	0 23.8176 	-0.000402417 	0 23.8171 	-0.000402825 	0 23.8167 	-0.000403232 	0 23.8162 	-0.000403758 	0 23.8159 	-0.000404531 	0 23.8155 	-0.000405303 	0 23.8151 	-0.000405682 	0 23.8146 	-0.000406061 	0 23.8142 	-0.000406633 	0 23.8138 	-0.000407522 	0 23.8134 	-0.000408411 	0 23.813 	-0.000408862 	0 23.8125 	-0.000409312 	0 23.8121 	-0.000409951 	0 23.8117 	-0.000410897 	0 23.8114 	-0.000411843 	0 23.8109 	-0.000412369 	0 23.8104 	-0.000412895 	0 23.81 	-0.000413591 	0 23.8096 	-0.000414575 	0 23.8093 	-0.000415559 	0 23.8088 	-0.000416213 	0 23.8083 	-0.000416866 	0 23.8079 	-0.000417594 	0 23.8075 	-0.000418513 	0 23.8072 	-0.000419432 	0 23.8067 	-0.000420112 	0 23.8062 	-0.000420792 	0 23.8058 	-0.000421548 	0 23.8054 	-0.000422499 	0 23.8051 	-0.00042345 	0 23.8046 	-0.000424237 	0 23.8041 	-0.000425024 	0 23.8037 	-0.000425803 	0 23.8033 	-0.000426691 	0 23.803 	-0.000427578 	0 23.8025 	-0.000428403 	0 23.802 	-0.000429227 	0 23.8016 	-0.00043002 	0 23.8012 	-0.000430892 	0 23.8009 	-0.000431764 	0 23.8004 	-0.000432685 	0 23.7999 	-0.000433606 	0 23.7995 	-0.000434434 	0 23.7991 	-0.00043528 	0 23.7988 	-0.000436127 	0 23.7983 	-0.000437181 	0 23.7978 	-0.000438236 	0 23.7974 	-0.000439088 	0 23.797 	-0.000439846 	0 23.7967 	-0.000440604 	0 23.7962 	-0.000441744 	0 23.7957 	-0.000442883 	0 23.7953 	-0.000443742 	0 23.7949 	-0.000444425 	0 23.7946 	-0.000445108 	0 23.7941 	-0.00044624 	0 23.7936 	-0.000447371 	0 23.7932 	-0.00044826 	0 23.7928 	-0.000449014 	0 23.7925 	-0.000449769 	0 23.792 	-0.000450987 	0 23.7915 	-0.000452205 	0 23.7911 	-0.000453121 	0 23.7907 	-0.000453848 	0 23.7903 	-0.000454575 	0 23.7899 	-0.000455807 	0 23.7894 	-0.000457038 	0 23.789 	-0.000457959 	0 23.7886 	-0.000458673 	0 23.7882 	-0.000459387 	0 23.7878 	-0.000460597 	0 23.7873 	-0.000461806 	0 23.7868 	-0.000462682 	0 23.7865 	-0.000463338 	0 23.7861 	-0.000463995 	0 23.7856 	-0.000465126 	0 23.7852 	-0.000466257 	0 23.7847 	-0.000467061 	0 23.7844 	-0.000467658 	0 23.784 	-0.000468255 	0 23.7835 	-0.000469329 	0 23.783 	-0.000470402 	0 23.7826 	-0.000471145 	0 23.7822 	-0.000471668 	0 23.7819 	-0.000472192 	0 23.7814 	-0.000473129 	0 23.7809 	-0.000474066 	0 23.7805 	-0.000474712 	0 23.7801 	-0.000475191 	0 23.7797 	-0.000475669 	0 23.7793 	-0.00047642 	0 23.7788 	-0.000477172 	0 23.7784 	-0.000477746 	0 23.778 	-0.000478272 	0 23.7776 	-0.000478799 	0 23.7771 	-0.000479446 	0 23.7767 	-0.000480093 	0 23.7762 	-0.000480644 	0 23.7759 	-0.000481227 	0 23.7755 	-0.00048181 	0 23.775 	-0.000482455 	0 23.7745 	-0.0004831 	0 23.7741 	-0.000483628 	0 23.7737 	-0.000484162 	0 23.7734 	-0.000484697 	0 23.7729 	-0.000485278 	0 23.7724 	-0.00048586 	0 23.772 	-0.000486376 	0 23.7716 	-0.000486961 	0 23.7712 	-0.000487547 	0 23.7707 	-0.000488171 	0 23.7703 	-0.000488796 	0 23.7698 	-0.000489287 	0 23.7695 	-0.000489807 	0 23.7691 	-0.000490327 	0 23.7686 	-0.000490868 	0 23.7681 	-0.00049141 	0 23.7677 	-0.000491867 	0 23.7673 	-0.000492412 	0 23.7669 	-0.000492957 	0 23.7665 	-0.000493489 	0 23.766 	-0.000494022 	0 23.7655 	-0.000494441 	0 23.7652 	-0.000494924 	0 23.7648 	-0.000495407 	0 23.7643 	-0.000495834 	0 23.7638 	-0.000496261 	0 23.7634 	-0.000496624 	0 23.763 	-0.000497119 	0 23.7627 	-0.000497613 	0 23.7622 	-0.000497955 	0 23.7617 	-0.000498298 	0 23.7612 	-0.000498593 	0 23.7609 	-0.000499057 	0 23.7605 	-0.000499521 	0 23.76 	-0.000499738 	0 23.7595 	-0.000499955 	0 23.7591 	-0.000500179 	0 23.7587 	-0.000500645 	0 23.7583 	-0.000501112 	0 23.7579 	-0.000501268 	0 23.7574 	-0.000501424 	0 23.7569 	-0.000501596 	0 23.7566 	-0.00050205 	0 23.7562 	-0.000502504 	0 23.7557 	-0.000502626 	0 23.7552 	-0.000502748 	0 23.7548 	-0.000502905 	0 23.7544 	-0.000503399 	0 23.754 	-0.000503893 	0 23.7535 	-0.000504101 	0 23.753 	-0.000504309 	0 23.7526 	-0.000504472 	0 23.7522 	-0.000504936 	0 23.7518 	-0.0005054 	0 23.7513 	-0.00050565 	0 23.7508 	-0.000505899 	0 23.7504 	-0.000506055 	0 23.75 	-0.000506522 	0 23.7497 	-0.00050699 	0 23.7492 	-0.000507307 	0 23.7487 	-0.000507625 	0 23.7482 	-0.000507766 	0 23.7478 	-0.000508219 	0 23.7475 	-0.000508672 	0 23.747 	-0.000509064 	0 23.7465 	-0.000509457 	0 23.746 	-0.000509595 	0 23.7456 	-0.000510073 	0 23.7452 	-0.000510551 	0 23.7447 	-0.000511045 	0 23.7442 	-0.000511538 	0 23.7438 	-0.000511683 	0 23.7434 	-0.000512189 	0 23.743 	-0.000512694 	0 23.7425 	-0.000513252 	0 23.742 	-0.000513809 	0 23.7416 	-0.000513969 	0 23.7412 	-0.000514557 	0 23.7408 	-0.000515146 	0 23.7403 	-0.000515832 	0 23.7398 	-0.000516518 	0 23.7393 	-0.000516717 	0 23.7389 	-0.000517372 	0 23.7385 	-0.000518026 	0 23.738 	-0.000518863 	0 23.7375 	-0.0005197 	0 23.7371 	-0.000519934 	0 23.7367 	-0.000520673 	0 23.7363 	-0.000521411 	0 23.7357 	-0.000522468 	0 23.7352 	-0.000523525 	0 23.7348 	-0.000523809 	0 23.7344 	-0.000524634 	0 23.7339 	-0.00052546 	0 23.7334 	-0.000526716 	0 23.7329 	-0.000527973 	0 23.7324 	-0.000528357 	0 23.732 	-0.000529416 	0 23.7316 	-0.000530475 	0 23.7311 	-0.000531969 	0 23.7306 	-0.000533463 	0 23.7301 	-0.00053398 	0 23.7297 	-0.000535328 	0 23.7292 	-0.000536676 	0 23.7287 	-0.00053846 	0 23.7282 	-0.000540244 	0 23.7277 	-0.000540896 	0 23.7273 	-0.000542524 	0 23.7268 	-0.000544151 	0 23.7263 	-0.00054624 	0 23.7257 	-0.00054833 	0 23.7252 	-0.000549148 	0 23.7248 	-0.000551167 	0 23.7244 	-0.000553186 	0 23.7238 	-0.000555754 	0 23.7233 	-0.000558323 	0 23.7228 	-0.000559377 	0 23.7223 	-0.000561799 	0 23.7218 	-0.000564222 	0 23.7213 	-0.00056737 	0 23.7207 	-0.000570519 	0 23.7202 	-0.000571853 	0 23.7197 	-0.000574706 	0 23.7193 	-0.000577559 	0 23.7187 	-0.000581362 	0 23.7181 	-0.000585166 	0 23.7176 	-0.000586814 	0 23.7171 	-0.000590152 	0 23.7166 	-0.00059349 	0 23.716 	-0.000597963 	0 23.7154 	-0.000602437 	0 23.7148 	-0.000604419 	0 23.7143 	-0.000608351 	0 23.7138 	-0.000612283 	0 23.7132 	-0.000617425 	0 23.7126 	-0.000622568 	0 23.712 	-0.00062489 	0 23.7115 	-0.000629514 	0 23.711 	-0.000634138 	0 23.7103 	-0.000639981 	0 23.7097 	-0.000645825 	0 23.7091 	-0.000648521 	0 23.7085 	-0.000653983 	0 23.708 	-0.000659444 	0 23.7073 	-0.000666069 	0 23.7067 	-0.000672693 	0 23.706 	-0.000675851 	0 23.7054 	-0.000682374 	0 23.7049 	-0.000688897 	0 23.7042 	-0.000696494 	0 23.7035 	-0.000704093 	0 23.7028 	-0.000707815 	0 23.7022 	-0.000715531 	0 23.7016 	-0.000723248 	0 23.7009 	-0.000731936 	0 23.7001 	-0.000740624 	0 23.6994 	-0.000744997 	0 23.6988 	-0.000754096 	0 23.6981 	-0.000763195 	0 23.6974 	-0.000773149 	0 23.6966 	-0.000783103 	0 23.6959 	-0.000788266 	0 23.6952 	-0.000798991 	0 23.6945 	-0.000809716 	0 23.6936 	-0.000821316 	0 23.6928 	-0.000832916 	0 23.692 	-0.000838995 	0 23.6913 	-0.00085137 	0 23.6905 	-0.000863745 	0 23.6897 	-0.000877139 	0 23.6888 	-0.000890533 	0 23.688 	-0.000897664 	0 23.6872 	-0.000912005 	0 23.6864 	-0.000926346 	0 23.6854 	-0.000941977 	0 23.6845 	-0.000957609 	0 23.6836 	-0.000965913 	0 23.6827 	-0.00098225 	0 23.6819 	-0.000998588 	0 23.6809 	-0.00101677 	0 23.6799 	-0.00103496 	0 23.6789 	-0.00104455 	0 23.6779 	-0.00106301 	0 23.677 	-0.00108147 	0 23.6759 	-0.00110233 	0 23.6748 	-0.00112319 	0 23.6738 	-0.00113422 	0 23.6727 	-0.0011552 	0 23.6717 	-0.00117619 	0 23.6706 	-0.00119998 	0 23.6694 	-0.00122376 	0 23.6682 	-0.00123635 	0 23.6671 	-0.0012602 	0 23.666 	-0.00128404 	0 23.6647 	-0.00131117 	0 23.6635 	-0.0013383 	0 23.6622 	-0.0013527 	0 23.661 	-0.00137977 	0 23.6597 	-0.00140684 	0 23.6583 	-0.00143783 	0 23.657 	-0.00146883 	0 23.6556 	-0.0014852 	0 23.6542 	-0.00151567 	0 23.6529 	-0.00154613 	0 23.6513 	-0.00158104 	0 23.6498 	-0.00161595 	0 23.6483 	-0.00163455 	0 23.6468 	-0.00166911 	0 23.6453 	-0.00170367 	0 23.6437 	-0.00174285 	0 23.642 	-0.00178204 	0 23.6404 	-0.00180321 	0 23.6387 	-0.00184259 	0 23.637 	-0.00188197 	0 23.6352 	-0.001926 	0 23.6334 	-0.00197003 	0 23.6316 	-0.00199402 	0 23.6297 	-0.0020385 	0 23.6279 	-0.00208299 	0 23.6259 	-0.00213196 	0 23.6239 	-0.00218093 	0 23.6218 	-0.00220807 	0 23.6198 	-0.00225857 	0 23.6177 	-0.00230907 	0 23.6155 	-0.00236366 	0 23.6133 	-0.00241826 	0 23.6111 	-0.00244888 	0 23.6088 	-0.00250581 	0 23.6065 	-0.00256273 	0 23.6041 	-0.00262315 	0 23.6017 	-0.00268358 	0 23.5992 	-0.00271792 	0 23.5967 	-0.00278203 	0 23.5941 	-0.00284615 	0 23.5914 	-0.00291283 	0 23.5887 	-0.0029795 	0 23.586 	-0.0030179 	0 23.5832 	-0.00308987 	0 23.5804 	-0.00316186 	0 23.5774 	-0.00323535 	0 23.5744 	-0.00330885 	0 23.5714 	-0.00335168 	0 23.5683 	-0.00343212 	0 23.5652 	-0.00351257 	0 23.5619 	-0.00359418 	0 23.5586 	-0.00367579 	0 23.5552 	-0.00372354 	0 23.5517 	-0.00381234 	0 23.5483 	-0.00390115 	0 23.5446 	-0.00399188 	0 23.541 	-0.00408262 	0 23.5372 	-0.0041357 	0 23.5334 	-0.00423286 	0 23.5296 	-0.00433004 	0 23.5255 	-0.00443019 	0 23.5215 	-0.00453035 	0 23.5173 	-0.00458915 	0 23.5131 	-0.00469541 	0 23.5088 	-0.0048017 	0 23.5044 	-0.0049122 	0 23.4999 	-0.00502272 	0 23.4953 	-0.00508739 	0 23.4906 	-0.00520215 	0 23.4859 	-0.00531694 	0 23.481 	-0.00543673 	0 23.4761 	-0.00555654 	0 23.471 	-0.00562727 	0 23.4658 	-0.00575199 	0 23.4606 	-0.00587673 	0 23.4552 	-0.0060061 	0 23.4498 	-0.0061355 	0 23.4442 	-0.00621249 	0 23.4385 	-0.00634709 	0 23.4328 	-0.00648173 	0 23.4268 	-0.00661904 	0 23.4208 	-0.00675638 	0 23.4147 	-0.00684003 	0 23.4084 	-0.0069866 	0 23.4021 	-0.0071332 	0 23.3955 	-0.00728068 	0 23.389 	-0.0074282 	0 23.3823 	-0.00751914 	0 23.3753 	-0.00767629 	0 23.3684 	-0.00783349 	0 23.3613 	-0.00799083 	0 23.3541 	-0.00814822 	0 23.3467 	-0.00824652 	0 23.3392 	-0.008414 	0 23.3316 	-0.00858154 	0 23.3238 	-0.0087485 	0 23.3159 	-0.00891551 	0 23.3079 	-0.00902081 	0 23.2996 	-0.0091971 	0 23.2914 	-0.00937345 	0 23.2829 	-0.00954779 	0 23.2743 	-0.00972219 	0 23.2656 	-0.00983389 	0 23.2566 	-0.0100192 	0 23.2477 	-0.0102045 	0 23.2384 	-0.0103878 	0 23.2291 	-0.0105711 	0 23.2197 	-0.0106892 	0 23.2099 	-0.0108805 	0 23.2002 	-0.0110718 	0 23.1902 	-0.0112631 	0 23.1802 	-0.0114544 	0 23.1699 	-0.0115781 	0 23.1594 	-0.0117728 	0 23.1489 	-0.0119675 	0 23.1381 	-0.0121626 	0 23.1273 	-0.0123577 	0 23.1163 	-0.0124865 	0 23.105 	-0.0126867 	0 23.0937 	-0.012887 	0 23.0821 	-0.013087 	0 23.0705 	-0.0132871 	0 23.0587 	-0.013421 	0 23.0466 	-0.0136235 	0 23.0345 	-0.013826 	0 23.0222 	-0.0140275 	0 23.0098 	-0.0142291 	0 22.9972 	-0.014367 	0 22.9843 	-0.0145714 	0 22.9714 	-0.014776 	0 22.9582 	-0.0149777 	0 22.9451 	-0.0151795 	0 22.9312 	-0.0153257 	0 22.9168 	-0.0155463 	0 22.9023 	-0.015767 	0 22.8875 	-0.0159611 	0 22.8727 	-0.0161552 	0 22.8573 	-0.0163018 	-1.41803e-22 22.841 	-0.0165302 	-5.63721e-22 22.8248 	-0.0167587 	-9.8565e-22 22.8084 	-0.0169823 	-2.25211e-21 22.7919 	-0.017206 	-3.51858e-21 22.7751 	-0.0173566 	-3.52411e-21 22.7579 	-0.0175754 	-2.25332e-21 22.7408 	-0.0177943 	-9.82539e-22 22.7234 	-0.0180086 	-5.60131e-22 22.7059 	-0.018223 	-1.37732e-22 22.6882 	-0.0183652 	-1.31825e-22 22.6701 	-0.0185759 	-5.41904e-22 22.6521 	-0.0187868 	-9.51991e-22 22.6338 	-0.0189924 	-2.18236e-21 22.6155 	-0.0191983 	-3.41274e-21 22.5968 	-0.0193327 	-3.41817e-21 22.5779 	-0.0195348 	-2.18382e-21 22.559 	-0.0197371 	-9.49478e-22 22.5398 	-0.0199337 	-5.39102e-22 22.5207 	-0.0201305 	-1.28736e-22 22.5013 	-0.0202586 	-1.23247e-22 22.4815 	-0.0204529 	-5.21526e-22 22.4618 	-0.0206473 	-9.19815e-22 22.4419 	-0.0208379 	-2.11355e-21 22.4219 	-0.0210287 	-3.3073e-21 22.4017 	-0.0211496 	-3.31261e-21 22.3813 	-0.0213284 	-2.11521e-21 22.3608 	-0.0215073 	-9.17828e-22 22.3402 	-0.0216836 	-5.1942e-22 22.3195 	-0.0218601 	-1.21021e-22 22.2986 	-0.021972 	-1.15447e-22 22.2775 	-0.0221385 	-5.00814e-22 22.2564 	-0.0223053 	-8.86189e-22 22.2351 	-0.0224692 	-2.04073e-21 22.2138 	-0.0226333 	-3.19528e-21 22.1922 	-0.0227364 	-3.08849e-21 22.1705 	-0.0228882 	-1.55168e-21 22.1488 	-0.0230403 	-1.48758e-23 22.1269 	-0.0231893 	1.50526e-21 22.105 	-0.0233385 	3.02539e-21 22.0829 	-0.0234334 	3.03582e-21 22.0607 	-0.023573 	1.52558e-21 22.0385 	-0.0237129 	1.53344e-23 22.016 	-0.0238496 	-1.47822e-21 21.9936 	-0.0239864 	-2.97176e-21 21.9711 	-0.0240732 	-3.08752e-21 21.9484 	-0.0241979 	-1.96973e-21 21.9257 	-0.0243227 	-8.51949e-22 21.9028 	-0.0244451 	-4.79826e-22 21.88 	-0.0245677 	-1.07708e-22 21.857 	-0.024646 	0 21.8339 	-0.0247567 	0 21.8108 	-0.0248674 	0 21.7876 	-0.0249756 	0 21.7643 	-0.025084 	0 21.741 	-0.0251551 	0 21.7176 	-0.0252538 	0 21.6942 	-0.0253526 	0 21.6706 	-0.0254491 	0 21.6471 	-0.0255458 	0 21.6235 	-0.0256097 	-9.70679e-23 21.5998 	-0.025694 	-4.4268e-22 21.5761 	-0.0257785 	-7.88297e-22 21.5523 	-0.0258609 	-1.8228e-21 21.5285 	-0.0259434 	-2.8573e-21 21.5047 	-0.0260003 	-2.86192e-21 21.4808 	-0.0260743 	-1.8248e-21 21.4569 	-0.0261484 	-7.87685e-22 21.4329 	-0.0262204 	-4.42359e-22 21.4089 	-0.0262926 	-9.70356e-23 21.3849 	-0.0263434 	0 21.3609 	-0.0264051 	0 21.3368 	-0.0264668 	0 21.3127 	-0.0265268 	0 21.2886 	-0.0265869 	0 21.2644 	-0.0266318 	0 21.2403 	-0.0266837 	0 21.2161 	-0.0267357 	0 21.1919 	-0.0267861 	0 21.1677 	-0.0268365 	0 21.1434 	-0.026876 	-8.76758e-23 21.1192 	-0.0269179 	-4.06741e-22 21.095 	-0.0269599 	-7.25809e-22 21.0707 	-0.0270004 	-1.68102e-21 21.0464 	-0.0270409 	-2.63623e-21 21.0222 	-0.0270754 	-2.64045e-21 20.9979 	-0.0271089 	-1.68299e-21 20.9737 	-0.0271424 	-7.25529e-22 20.9494 	-0.0271744 	-4.06827e-22 20.9251 	-0.0272065 	-8.81261e-23 20.9008 	-0.0272365 	0 20.8766 	-0.027262 	0 20.8523 	-0.0272875 	0 20.828 	-0.0273115 	0 20.8037 	-0.0273356 	0 20.7795 	-0.0273615 	0 20.7553 	-0.0273798 	0 20.7311 	-0.0273982 	0 20.7069 	-0.0274151 	0 20.6826 	-0.027432 	0 20.6585 	-0.0274543 	-7.9804e-23 20.6343 	-0.0274664 	-3.73325e-22 20.6102 	-0.0274785 	-6.66846e-22 20.586 	-0.0274894 	-1.54599e-21 20.5619 	-0.0275003 	-2.42513e-21 20.5377 	-0.0275192 	-2.42895e-21 20.5137 	-0.0275253 	-1.54785e-21 20.4897 	-0.0275314 	-6.66754e-22 20.4656 	-0.0275364 	-3.73622e-22 20.4415 	-0.0275415 	-8.04908e-23 20.4175 	-0.0275575 	0 20.3936 	-0.027559 	0 20.3697 	-0.0275605 	0 20.3457 	-0.027561 	0 20.3217 	-0.0275615 	0 20.2979 	-0.027575 	0 20.2741 	-0.0275718 	0 20.2503 	-0.0275685 	0 20.2264 	-0.0275646 	0 20.2026 	-0.0275607 	0 20.1789 	-0.027572 	0 20.1552 	-0.0275652 	0 20.1315 	-0.0275583 	0 20.1079 	-0.0275511 	0 20.0842 	-0.0275438 	0 20.0606 	-0.0275533 	-1.67056e-22 20.0371 	-0.027543 	-5.6283e-22 20.0136 	-0.0275327 	-9.58604e-22 19.99 	-0.0275224 	-1.61718e-21 19.9665 	-0.0275121 	-2.27575e-21 19.9431 	-0.0275199 	-2.27845e-21 19.9198 	-0.0275067 	-1.61853e-21 19.8964 	-0.0274936 	-9.58616e-22 19.8731 	-0.0274808 	-5.63545e-22 19.8497 	-0.027468 	-1.68474e-22 19.8264 	-0.0274745 	0 19.8033 	-0.0274589 	0 19.7801 	-0.0274433 	0 19.7569 	-0.0274285 	0 19.7337 	-0.0274137 	0 19.7107 	-0.027419 	0 19.6877 	-0.0274012 	0 19.6647 	-0.0273834 	0 19.6417 	-0.0273668 	0 19.6187 	-0.0273502 	0 19.5958 	-0.0273546 	8.75325e-23 19.573 	-0.0273351 	2.08523e-22 19.5502 	-0.0273156 	3.29513e-22 19.5274 	-0.0272978 	2.08803e-22 19.5046 	-0.02728 	8.80925e-23 19.4819 	-0.0272836 	8.75023e-23 19.4593 	-0.0272625 	2.08491e-22 19.4367 	-0.0272414 	3.29479e-22 19.4141 	-0.0272225 	2.08767e-22 19.3915 	-0.0272035 	8.80552e-23 19.369 	-0.0272065 	0 19.3466 	-0.0271841 	0 19.3242 	-0.0271618 	0 19.3017 	-0.0271422 	0 19.2793 	-0.0271227 	0 19.257 	-0.0271251 	0 19.2348 	-0.0271015 	0 19.2126 	-0.0270778 	0 19.1904 	-0.0270577 	0 19.1682 	-0.0270376 	0 19.146 	-0.0270396 	-6.02801e-23 19.124 	-0.0270146 	-2.81201e-22 19.1021 	-0.0269897 	-5.02123e-22 19.08 	-0.0269695 	-1.16419e-21 19.058 	-0.0269492 	-1.82625e-21 19.0361 	-0.0269507 	-1.82895e-21 19.0143 	-0.0269243 	-1.16558e-21 18.9925 	-0.0268979 	-5.02213e-22 18.9707 	-0.0268777 	-2.81626e-22 18.9489 	-0.0268574 	-6.10404e-23 18.9272 	-0.0268583 	0 18.9056 	-0.0268305 	0 18.884 	-0.0268027 	0 18.8624 	-0.0267824 	0 18.8407 	-0.0267622 	0 18.8192 	-0.0267626 	0 18.7978 	-0.0267336 	0 18.7765 	-0.0267046 	0 18.755 	-0.0266843 	0 18.7336 	-0.026664 	0 18.7123 	-0.0266639 	-5.52487e-23 18.6911 	-0.026634 	-2.56456e-22 18.67 	-0.026604 	-4.57664e-22 18.6487 	-0.0265828 	-1.0608e-21 18.6275 	-0.0265617 	-1.66393e-21 18.6064 	-0.0265612 	-1.66634e-21 18.5855 	-0.0265311 	-1.06205e-21 18.5645 	-0.026501 	-4.57764e-22 18.5435 	-0.0264787 	-2.56863e-22 18.5225 	-0.0264564 	-5.59628e-23 18.5016 	-0.0264555 	0 18.4808 	-0.0264256 	0 18.46 	-0.0263957 	0 18.4392 	-0.0263725 	0 18.4184 	-0.0263493 	0 18.3977 	-0.0263479 	0 18.3771 	-0.0263183 	0 18.3566 	-0.0262886 	0 18.336 	-0.0262651 	0 18.3154 	-0.0262416 	0 18.2949 	-0.02624 	-5.03097e-23 18.2745 	-0.0262103 	-2.32213e-22 18.2541 	-0.0261807 	-4.14115e-22 18.2337 	-0.0261566 	-9.59676e-22 18.2133 	-0.0261325 	-1.50524e-21 18.193 	-0.0261305 	-1.50737e-21 18.1729 	-0.0261009 	-9.60793e-22 18.1527 	-0.0260714 	-4.14216e-22 18.1325 	-0.0260467 	-2.32591e-22 18.1123 	-0.0260219 	-5.09654e-23 18.0922 	-0.0260195 	0 18.0722 	-0.0259902 	0 18.0522 	-0.0259608 	0 18.0322 	-0.0259355 	0 18.0122 	-0.0259103 	0 17.9923 	-0.0259077 	0 17.9725 	-0.0258787 	0 17.9527 	-0.0258498 	0 17.9329 	-0.0258245 	0 17.9131 	-0.0257991 	0 17.8934 	-0.0257963 	-4.54943e-23 17.8738 	-0.0257674 	-2.08671e-22 17.8542 	-0.0257385 	-3.71847e-22 17.8346 	-0.0257128 	-8.61417e-22 17.815 	-0.0256872 	-1.35099e-21 17.7955 	-0.0256842 	-1.35286e-21 17.7761 	-0.0256557 	-8.62402e-22 17.7567 	-0.0256272 	-3.71944e-22 17.7373 	-0.0256017 	-2.09015e-22 17.7178 	-0.0255763 	-4.60865e-23 17.6985 	-0.0255732 	0 17.6793 	-0.0255449 	0 17.6601 	-0.0255165 	0 17.6408 	-0.0254911 	0 17.6216 	-0.0254657 	0 17.6025 	-0.0254625 	0 17.5834 	-0.0254344 	0 17.5644 	-0.0254063 	0 17.5454 	-0.025381 	0 17.5263 	-0.0253558 	0 17.5074 	-0.0253526 	-4.09239e-23 17.4885 	-0.0253246 	-1.86436e-22 17.4697 	-0.0252965 	-3.31947e-22 17.4508 	-0.0252713 	-7.68523e-22 17.4319 	-0.025246 	-1.2051e-21 17.4132 	-0.0252427 	-1.20674e-21 17.3945 	-0.025215 	-7.69387e-22 17.3759 	-0.0251874 	-3.32038e-22 17.3572 	-0.0251624 	-1.86746e-22 17.3385 	-0.0251374 	-4.14536e-23 17.3199 	-0.0251341 	0 17.3014 	-0.0251065 	0 17.2829 	-0.0250789 	0 17.2644 	-0.0250541 	0 17.2459 	-0.0250293 	0 17.2275 	-0.0250259 	0 17.2092 	-0.0249986 	0 17.1909 	-0.0249713 	0 17.1726 	-0.0249468 	0 17.1542 	-0.0249223 	0 17.136 	-0.0249189 	0 17.1179 	-0.0248916 	0 17.0998 	-0.0248644 	0 17.0816 	-0.0248401 	0 17.0634 	-0.0248157 	0 17.0454 	-0.0248123 	-8.00135e-23 17.0274 	-0.0247852 	-2.67438e-22 17.0095 	-0.0247582 	-4.54863e-22 16.9915 	-0.0247341 	-7.66968e-22 16.9735 	-0.0247101 	-1.07907e-21 16.9556 	-0.0247066 	-1.08017e-21 16.9379 	-0.0246796 	-7.67538e-22 16.9201 	-0.0246527 	-4.54903e-22 16.9023 	-0.0246288 	-2.6778e-22 16.8844 	-0.024605 	-8.06561e-23 16.8667 	-0.0246015 	0 16.8491 	-0.0245748 	0 16.8315 	-0.