/*--------------------------------*- C++ -*----------------------------------*\
  =========                 |
  \\      /  F ield         | OpenFOAM: The Open Source CFD Toolbox
   \\    /   O peration     | Website:  https://openfoam.org
    \\  /    A nd           | Version:  8
     \\/     M anipulation  |
\*---------------------------------------------------------------------------*/
FoamFile
{
    version     2.0;
    format      ascii;
    class       volScalarField;
    location    "101";
    object      epsilon;
}
// * * * * * * * * * * * * * * * * * * * * * * * * * * * * * * * * * * * * * //

dimensions      [0 2 -3 0 0 0 0];

internalField   nonuniform List<scalar> 
65000
(
14.5687
14.0272
13.5151
13.0303
12.5711
12.1355
11.7223
11.3298
10.9569
10.6022
10.2647
9.94332
9.63711
9.34508
9.06651
8.80054
8.54652
8.30372
8.07155
7.8494
7.63674
7.43304
7.23784
7.05068
6.87115
6.69885
6.5334
6.37448
6.22173
6.07488
5.9336
5.79767
5.66676
5.54073
5.41924
5.30218
5.18925
5.08036
4.97522
4.87377
4.77574
4.68109
4.58955
4.50111
4.41552
4.33277
4.25263
4.17511
4.09998
4.02725
3.95673
3.88842
3.82216
3.75791
3.69558
3.63509
3.57639
3.51938
3.46403
3.41026
3.35799
3.30725
3.25782
3.20991
3.1631
3.11786
3.07347
3.03069
2.98854
2.94804
2.90795
2.86953
2.83132
2.79475
2.75824
2.72329
2.68832
2.65478
2.62121
2.58891
2.55666
2.5255
2.49458
2.46456
2.43504
2.40625
2.37825
2.35083
2.3245
2.29861
2.27404
2.24977
2.227
2.20435
2.18327
2.16215
2.14256
2.12279
2.1044
2.08576
2.06828
2.05055
2.03372
2.01672
2.00035
1.98396
1.96799
1.95214
1.93661
1.92128
1.9063
1.89149
1.87718
1.86297
1.84939
1.83585
1.82302
1.81023
1.79816
1.78616
1.77482
1.76364
1.75301
1.74264
1.7327
1.7231
1.71381
1.70488
1.69619
1.68782
1.67963
1.67171
1.66387
1.65628
1.64869
1.64132
1.63393
1.62674
1.61951
1.61256
1.60552
1.5989
1.59216
1.58592
1.57963
1.57375
1.56799
1.56249
1.55721
1.55213
1.54733
1.54258
1.53825
1.53383
1.52984
1.52603
1.52252
1.51962
1.51729
1.51575
1.5137
1.51248
1.50971
1.50878
1.50921
1.51245
1.5167
1.52319
1.53016
1.539
1.54821
1.55904
1.56992
1.58243
1.59467
1.60849
1.62232
1.63714
1.65307
1.66887
1.68676
1.70382
1.72267
1.74082
1.76014
1.77797
1.79807
1.81479
1.83398
1.85232
1.86673
1.88837
1.9004
1.91877
1.9371
1.93826
1.94305
1.94474
1.94451
1.93865
14.5687
14.0272
13.5151
13.0303
12.571
12.1355
11.7223
11.3298
10.9569
10.6023
10.2648
9.94337
9.63714
9.34513
9.06656
8.8006
8.54658
8.30379
8.07163
7.84947
7.63683
7.43312
7.23795
7.05077
6.87128
6.69895
6.53354
6.37459
6.22189
6.075
5.93377
5.79779
5.66694
5.54086
5.41942
5.30233
5.18944
5.08052
4.97541
4.87394
4.77592
4.68126
4.58973
4.5013
4.4157
4.33296
4.25281
4.1753
4.10015
4.02745
3.9569
3.88862
3.82233
3.75811
3.69574
3.63529
3.57655
3.51958
3.46418
3.41045
3.35813
3.30744
3.25796
3.21011
3.16324
3.11805
3.07361
3.03089
2.98868
2.94825
2.90809
2.86973
2.83144
2.79495
2.75832
2.72347
2.68835
2.65493
2.62119
2.58904
2.55662
2.52569
2.49461
2.4649
2.43527
2.40688
2.37885
2.35192
2.32566
2.30029
2.27591
2.25215
2.22963
2.20746
2.18669
2.16598
2.1467
2.12728
2.10921
2.09085
2.07368
2.0562
2.0397
2.02291
2.00694
1.99073
1.97525
1.95956
1.9446
1.92942
1.91504
1.9004
1.88663
1.8726
1.85947
1.84609
1.83363
1.82093
1.80915
1.79715
1.78605
1.77477
1.76431
1.75374
1.74389
1.73398
1.7247
1.71536
1.70659
1.69774
1.68938
1.68097
1.67291
1.66488
1.65703
1.64933
1.64168
1.63428
1.62687
1.61978
1.6127
1.60598
1.59933
1.59302
1.58684
1.58095
1.57522
1.56976
1.5644
1.55937
1.55436
1.54973
1.5451
1.54077
1.53654
1.53265
1.529
1.52589
1.52364
1.52181
1.52007
1.5192
1.51606
1.51461
1.5156
1.51851
1.52318
1.52896
1.53652
1.54483
1.55484
1.56539
1.57713
1.58957
1.60241
1.61641
1.63041
1.64563
1.66151
1.67757
1.69573
1.71246
1.7322
1.7494
1.76988
1.7868
1.80755
1.82433
1.84283
1.86301
1.87533
1.89919
1.9117
1.92562
1.94769
1.94995
1.95787
1.95405
1.95104
1.94751
14.5687
14.0272
13.5151
13.0304
12.5711
12.1356
11.7223
11.3299
10.957
10.6023
10.2648
9.94346
9.63722
9.34524
9.06666
8.80073
8.54671
8.30394
8.07177
7.84965
7.637
7.43332
7.23814
7.05099
6.87149
6.69919
6.53378
6.37485
6.22215
6.07527
5.93405
5.79809
5.66724
5.54117
5.41973
5.30265
5.18976
5.08086
4.97573
4.87429
4.77626
4.68163
4.59008
4.50166
4.41606
4.33333
4.25318
4.17566
4.10054
4.0278
3.95731
3.88896
3.82275
3.75845
3.69618
3.63562
3.57699
3.5199
3.46462
3.41077
3.35858
3.30776
3.25841
3.21043
3.1637
3.11839
3.07407
3.03125
2.98915
2.94865
2.90859
2.87022
2.83202
2.79558
2.75907
2.72437
2.68941
2.65627
2.62277
2.59106
2.55898
2.52867
2.49803
2.46913
2.44003
2.41261
2.38518
2.35931
2.33367
2.30939
2.28558
2.26288
2.24088
2.21966
2.19931
2.17943
2.16051
2.14176
2.12401
2.10619
2.08937
2.07228
2.0562
2.03968
2.02423
2.00819
1.99331
1.9777
1.96337
1.94821
1.93442
1.91975
1.90651
1.89236
1.87969
1.86611
1.85404
1.84106
1.82962
1.81727
1.80647
1.79476
1.78458
1.77349
1.76387
1.75335
1.74426
1.73426
1.72559
1.7161
1.70773
1.69877
1.69059
1.68218
1.67414
1.66625
1.6584
1.65096
1.64346
1.6364
1.62938
1.62271
1.61619
1.60989
1.60387
1.59787
1.59228
1.58658
1.58129
1.57593
1.57093
1.56592
1.56126
1.5565
1.55219
1.54788
1.54408
1.54063
1.53793
1.5357
1.53402
1.53288
1.52988
1.52833
1.52855
1.53131
1.5362
1.54214
1.55026
1.5583
1.56898
1.57886
1.59137
1.60291
1.61667
1.62976
1.64476
1.6592
1.67599
1.69158
1.71031
1.72705
1.74687
1.76478
1.78476
1.80306
1.82295
1.84136
1.8591
1.88073
1.89245
1.9178
1.92935
1.94235
1.96749
1.96687
1.97298
1.96717
1.96434
1.96143
14.5687
14.0273
13.5152
13.0304
12.5711
12.1356
11.7224
11.33
10.957
10.6024
10.2649
9.94359
9.63734
9.3454
9.06681
8.80093
8.54688
8.30417
8.07198
7.84992
7.63724
7.43363
7.23842
7.05133
6.8718
6.69956
6.53413
6.37525
6.22253
6.0757
5.93446
5.79854
5.66768
5.54165
5.42019
5.30315
5.19024
5.08137
4.97624
4.87482
4.77678
4.68216
4.59061
4.5022
4.4166
4.33388
4.25374
4.17622
4.10111
4.02836
3.95789
3.88953
3.82333
3.75902
3.69676
3.6362
3.57757
3.52049
3.46521
3.41137
3.35918
3.30836
3.25903
3.21103
3.16434
3.11898
3.07473
3.03184
2.98985
2.94926
2.90935
2.87089
2.8329
2.79641
2.76019
2.7255
2.69094
2.65791
2.62493
2.59348
2.56206
2.53213
2.50229
2.47392
2.44572
2.41894
2.39246
2.36732
2.34258
2.31909
2.29609
2.27419
2.25283
2.23241
2.21254
2.19343
2.17484
2.15684
2.13932
2.12223
2.10558
2.08922
2.07329
2.0575
2.04218
2.02689
2.01209
1.99725
1.98293
1.96855
1.95469
1.94075
1.92739
1.91391
1.90106
1.88807
1.87578
1.86333
1.85161
1.83975
1.82861
1.81735
1.80678
1.7961
1.78607
1.77593
1.76641
1.75677
1.7477
1.73855
1.72988
1.72125
1.71295
1.70481
1.69689
1.68921
1.6817
1.67442
1.66735
1.66044
1.65379
1.64726
1.64098
1.63484
1.62894
1.62305
1.61764
1.61194
1.60691
1.60172
1.59669
1.59222
1.58737
1.5833
1.57876
1.57543
1.57109
1.56815
1.564
1.56169
1.55833
1.55604
1.55308
1.55218
1.54949
1.55137
1.55551
1.56122
1.5684
1.57593
1.5855
1.59506
1.60646
1.61823
1.63097
1.64472
1.65882
1.67399
1.68994
1.7062
1.72399
1.74166
1.76039
1.77958
1.79889
1.81823
1.83865
1.85733
1.87663
1.89828
1.9112
1.93844
1.94608
1.96948
1.97259
1.98095
1.9792
1.97786
1.98758
1.99121
14.5687
14.0273
13.5152
13.0304
12.5712
12.1357
11.7225
11.3301
10.9572
10.6025
10.2651
9.94375
9.63751
9.34561
9.06702
8.80119
8.54713
8.30448
8.07228
7.85027
7.63758
7.43402
7.23881
7.05177
6.87224
6.70004
6.53461
6.37577
6.22305
6.07626
5.93502
5.79913
5.66828
5.54227
5.42083
5.30379
5.19091
5.08204
4.97693
4.87551
4.77749
4.68288
4.59133
4.50294
4.41733
4.33463
4.25448
4.17699
4.10186
4.02914
3.95864
3.89032
3.8241
3.75982
3.69754
3.637
3.57836
3.5213
3.46601
3.41218
3.35999
3.30918
3.25984
3.21185
3.16516
3.1198
3.07555
3.03265
2.99067
2.95005
2.91018
2.87168
2.83375
2.79722
2.76108
2.72636
2.69192
2.65888
2.62606
2.59462
2.56342
2.53356
2.504
2.47576
2.44789
2.42134
2.39522
2.37041
2.34606
2.323
2.30037
2.279
2.25797
2.23814
2.21854
2.20004
2.18166
2.16425
2.14687
2.1303
2.11373
2.09781
2.08187
2.06647
2.05104
2.03609
2.02108
2.00655
1.99193
1.97781
1.96363
1.94991
1.9362
1.9229
1.90973
1.89688
1.88429
1.87193
1.85992
1.84811
1.83667
1.82542
1.81452
1.80383
1.79345
1.78329
1.77339
1.76375
1.75432
1.74519
1.73623
1.72761
1.71913
1.71102
1.70303
1.69541
1.68788
1.68073
1.67363
1.6669
1.66015
1.65381
1.64739
1.6414
1.63531
1.62966
1.62394
1.61862
1.61329
1.60833
1.60335
1.59879
1.59412
1.59
1.58574
1.58226
1.57895
1.57622
1.57391
1.57187
1.57108
1.56759
1.56658
1.5653
1.56214
1.56326
1.56607
1.57189
1.57805
1.58596
1.59442
1.60442
1.61486
1.62709
1.63943
1.65354
1.66801
1.68324
1.70003
1.71607
1.7346
1.75201
1.77123
1.79013
1.81014
1.82916
1.85054
1.86959
1.8893
1.91254
1.92555
1.95397
1.96457
1.98267
2.00522
2.00876
2.01817
2.02263
2.02244
2.02082
14.5687
14.0273
13.5152
13.0305
12.5712
12.1358
11.7225
11.3302
10.9573
10.6027
10.2652
9.94395
9.63773
9.34586
9.06729
8.80149
8.54747
8.30483
8.07267
7.85068
7.63804
7.43449
7.23933
7.0523
6.87281
6.70063
6.53524
6.3764
6.22374
6.07694
5.93576
5.79986
5.66906
5.54303
5.42165
5.3046
5.19176
5.08288
4.97781
4.87638
4.7784
4.68378
4.59226
4.50387
4.41828
4.33558
4.25544
4.17795
4.10283
4.03012
3.95962
3.89131
3.82508
3.76082
3.69853
3.63801
3.57935
3.52231
3.467
3.4132
3.36099
3.31019
3.26084
3.21285
3.16616
3.12079
3.07656
3.03361
2.99167
2.95097
2.91115
2.87252
2.83465
2.79792
2.76187
2.72689
2.69252
2.65918
2.62644
2.59467
2.56356
2.53338
2.50393
2.47542
2.44773
2.42099
2.39512
2.37024
2.34622
2.32322
2.30098
2.27977
2.25916
2.23954
2.22034
2.20203
2.18399
2.16668
2.14953
2.13296
2.11647
2.10045
2.08445
2.06885
2.05325
2.03804
2.02282
2.008
1.9932
1.9788
1.96448
1.95056
1.93678
1.92339
1.91019
1.89737
1.88478
1.87253
1.86053
1.84886
1.83744
1.82631
1.81543
1.80482
1.79445
1.78434
1.77447
1.76487
1.7555
1.74642
1.73757
1.72902
1.7207
1.71269
1.70491
1.69742
1.69015
1.68314
1.67633
1.66974
1.66336
1.65714
1.6511
1.64526
1.63953
1.63409
1.62868
1.62359
1.61866
1.61379
1.60938
1.60483
1.60072
1.59653
1.59289
1.58935
1.58626
1.58357
1.58114
1.57906
1.57732
1.57577
1.5732
1.57172
1.56831
1.56918
1.57134
1.57667
1.58233
1.59003
1.59797
1.60778
1.61775
1.62978
1.64192
1.65589
1.67051
1.68574
1.70291
1.71898
1.73805
1.75528
1.77529
1.79383
1.81472
1.83395
1.85552
1.87637
1.89548
1.92085
1.93597
1.96099
1.98276
1.9935
2.0234
2.03477
2.04439
2.04111
2.04286
2.04349
14.5687
14.0273
13.5153
13.0305
12.5713
12.1359
11.7227
11.3303
10.9574
10.6029
10.2654
9.94421
9.638
9.34617
9.06763
8.80186
8.54788
8.30527
8.07315
7.85119
7.63859
7.43508
7.23994
7.05296
6.8735
6.70135
6.53599
6.3772
6.22454
6.0778
5.93662
5.80077
5.66997
5.544
5.42262
5.3056
5.19278
5.08392
4.97887
4.87745
4.7795
4.68488
4.59339
4.50499
4.41944
4.33672
4.25662
4.17911
4.10402
4.0313
3.96082
3.89251
3.82628
3.76203
3.69973
3.63922
3.58055
3.52352
3.4682
3.4144
3.36218
3.31139
3.26204
3.21404
3.16736
3.12195
3.07776
3.03475
2.99285
2.95207
2.91229
2.87355
2.83572
2.79884
2.76281
2.72766
2.69331
2.65976
2.62704
2.59506
2.56396
2.53357
2.50415
2.47543
2.44779
2.42086
2.39505
2.37
2.34605
2.32288
2.30072
2.27932
2.25876
2.23892
2.21972
2.20115
2.18302
2.16542
2.14809
2.13118
2.11443
2.09803
2.08172
2.06573
2.04982
2.03422
2.01873
2.00356
1.98856
1.97389
1.95946
1.94536
1.93156
1.9181
1.90497
1.89219
1.87973
1.86761
1.85583
1.84432
1.83318
1.82223
1.81168
1.80125
1.79124
1.78131
1.77182
1.76241
1.75342
1.74455
1.73607
1.72777
1.7198
1.71206
1.70461
1.69741
1.69044
1.68375
1.6772
1.67098
1.66478
1.65897
1.65307
1.6476
1.64203
1.63679
1.63164
1.62657
1.62186
1.61705
1.61264
1.60823
1.60408
1.59995
1.59608
1.59241
1.58897
1.5862
1.58364
1.58177
1.58054
1.57932
1.5784
1.57662
1.57487
1.57129
1.57232
1.57546
1.58076
1.58692
1.59501
1.60368
1.61424
1.62534
1.63842
1.65168
1.66742
1.68227
1.7006
1.71655
1.73683
1.75392
1.77525
1.79368
1.81562
1.83533
1.85754
1.87909
1.90008
1.92423
1.94424
1.96646
1.99199
2.0062
2.03321
2.05545
2.05814
2.06775
2.062
2.06461
14.5687
14.0274
13.5153
13.0306
12.5714
12.136
11.7228
11.3305
10.9576
10.6031
10.2657
9.94451
9.63831
9.34655
9.06802
8.80231
8.54835
8.30581
8.07371
7.85181
7.63922
7.43578
7.24066
7.05374
6.87429
6.70222
6.53686
6.37814
6.22548
6.07882
5.93762
5.80185
5.67104
5.54514
5.42374
5.3068
5.19395
5.08516
4.98009
4.87873
4.78076
4.68618
4.5947
4.50632
4.42078
4.33807
4.25798
4.18049
4.1054
4.03269
3.96221
3.89391
3.82767
3.76344
3.70112
3.64065
3.58194
3.52494
3.4696
3.41582
3.36358
3.31279
3.26343
3.21543
3.16875
3.12334
3.07914
3.03613
2.99423
2.95344
2.91366
2.87489
2.83706
2.80015
2.76412
2.7289
2.69453
2.66089
2.6281
2.59598
2.56474
2.53413
2.50448
2.47544
2.44742
2.42005
2.39372
2.36809
2.34347
2.31961
2.29664
2.27449
2.25307
2.23246
2.21238
2.19307
2.17413
2.15583
2.13779
2.12027
2.10292
2.08602
2.06921
2.05281
2.03648
2.02056
2.00472
1.98927
1.974
1.95906
1.94443
1.93008
1.91614
1.90246
1.88923
1.87627
1.86377
1.85152
1.83974
1.82818
1.81708
1.80616
1.79567
1.78533
1.77541
1.76561
1.75621
1.74694
1.73804
1.72932
1.72091
1.71275
1.70487
1.69726
1.68995
1.68284
1.67609
1.66943
1.66314
1.65691
1.65094
1.64509
1.63934
1.63381
1.62827
1.62302
1.61772
1.61275
1.60772
1.60308
1.59832
1.59403
1.58951
1.58548
1.58116
1.57732
1.57345
1.57018
1.56706
1.56522
1.5634
1.56162
1.55941
1.55668
1.55481
1.55347
1.55622
1.56019
1.56739
1.57378
1.58329
1.59183
1.60385
1.61454
1.62923
1.64209
1.65928
1.67426
1.69339
1.71045
1.73069
1.74989
1.77052
1.79167
1.81282
1.83494
1.85728
1.87977
1.90277
1.92615
1.94938
1.97141
1.99719
2.01644
2.04122
2.05178
2.05632
2.07025
2.07592
2.0775
14.5687
14.0274
13.5153
13.0307
12.5714
12.1362
11.7229
11.3307
10.9578
10.6034
10.266
9.94487
9.63868
9.34699
9.06848
8.80284
8.5489
8.30643
8.07436
7.85253
7.63997
7.43659
7.24151
7.05465
6.87523
6.70321
6.53789
6.37922
6.22659
6.07998
5.93881
5.80309
5.67229
5.54645
5.42505
5.30817
5.19532
5.08659
4.98151
4.8802
4.78223
4.68769
4.59621
4.50786
4.42233
4.33963
4.25956
4.18206
4.107
4.03429
3.96383
3.89552
3.8293
3.76506
3.70275
3.64227
3.58357
3.52657
3.47122
3.41744
3.3652
3.31441
3.26504
3.21705
3.17035
3.12495
3.08074
3.03774
2.99583
2.95506
2.91528
2.87655
2.83871
2.80185
2.7658
2.73062
2.6962
2.66257
2.62968
2.59747
2.56604
2.53521
2.50521
2.47577
2.44721
2.41923
2.39213
2.36568
2.34004
2.31515
2.29097
2.26761
2.24481
2.22286
2.20137
2.18067
2.16039
2.14074
2.12154
2.10278
2.08448
2.06653
2.04896
2.03178
2.0148
1.99835
1.98192
1.96616
1.95033
1.93522
1.92008
1.90558
1.89123
1.87736
1.86385
1.85061
1.83796
1.82536
1.81355
1.8016
1.79052
1.77923
1.76876
1.75811
1.74817
1.73811
1.72865
1.71913
1.71013
1.70117
1.69262
1.68426
1.67619
1.66844
1.66094
1.65372
1.64682
1.64004
1.63362
1.62722
1.62107
1.615
1.60898
1.6032
1.59734
1.59179
1.58622
1.58092
1.57575
1.57078
1.56601
1.5614
1.55692
1.55262
1.54857
1.54455
1.54142
1.53801
1.53597
1.53381
1.53244
1.53
1.52859
1.52595
1.52706
1.52899
1.53489
1.54042
1.54922
1.5571
1.56817
1.57793
1.59123
1.60281
1.61835
1.63203
1.64962
1.66566
1.685
1.70337
1.72409
1.74449
1.76633
1.78806
1.81121
1.83328
1.85777
1.88009
1.90478
1.92808
1.95261
1.97499
2.00141
2.02101
2.04663
2.07002
2.08376
2.08253
2.07907
2.08857
14.5687
14.0275
13.5154
13.0308
12.5716
12.1363
11.7231
11.3309
10.9581
10.6037
10.2663
9.94524
9.63914
9.34746
9.06904
8.80342
8.54957
8.30711
8.07513
7.85332
7.64086
7.43749
7.2425
7.05566
6.87634
6.70433
6.53909
6.38043
6.22789
6.08128
5.9402
5.80447
5.67377
5.5479
5.4266
5.30968
5.19693
5.08815
4.98319
4.88182
4.78396
4.68934
4.59799
4.50954
4.42415
4.34134
4.26142
4.18379
4.10889
4.03603
3.96573
3.89728
3.83122
3.76683
3.70468
3.64404
3.5855
3.52835
3.47314
3.41923
3.3671
3.3162
3.26693
3.21884
3.17221
3.12675
3.08259
3.03955
2.9977
2.95691
2.9172
2.87848
2.84077
2.80395
2.76806
2.73299
2.69877
2.66529
2.63261
2.60057
2.56934
2.53864
2.50879
2.47935
2.45084
2.42265
2.39545
2.36851
2.34261
2.31693
2.29229
2.26787
2.24447
2.22126
2.19905
2.17698
2.15589
2.13486
2.11479
2.09476
2.07559
2.0565
2.03813
2.01997
2.00234
1.98509
1.96819
1.95181
1.93569
1.92014
1.90487
1.89009
1.8757
1.86168
1.84818
1.83491
1.82225
1.80969
1.79781
1.7859
1.77471
1.76337
1.75274
1.74191
1.73174
1.72136
1.71155
1.70164
1.69217
1.68275
1.67368
1.66483
1.65623
1.64799
1.63998
1.63232
1.62496
1.61779
1.61102
1.60428
1.59795
1.59157
1.58551
1.57946
1.57359
1.56785
1.56226
1.55683
1.55168
1.54658
1.54181
1.53706
1.53271
1.52852
1.5249
1.52183
1.51879
1.51701
1.5154
1.51373
1.51303
1.5094
1.50919
1.51028
1.51388
1.51792
1.52474
1.53121
1.54091
1.54938
1.56149
1.57171
1.58575
1.59783
1.61348
1.62783
1.64498
1.66193
1.68072
1.70009
1.72078
1.74191
1.76457
1.78665
1.81084
1.8336
1.85809
1.88187
1.90591
1.92971
1.95531
1.97557
2.0055
2.02016
2.0548
2.06025
2.05958
2.06775
2.07652
2.07282
14.5687
14.0275
13.5155
13.0309
12.5717
12.1364
11.7234
11.3312
10.9584
10.604
10.2667
9.94566
9.63966
9.34799
9.06967
8.80407
8.55033
8.30789
8.07602
7.85422
7.64187
7.43852
7.24363
7.0568
6.87758
6.70559
6.54045
6.38181
6.22935
6.08275
5.94176
5.80604
5.67541
5.54955
5.42833
5.31141
5.19874
5.08994
4.98506
4.88366
4.78588
4.69124
4.59996
4.51148
4.42614
4.34333
4.26343
4.18582
4.11092
4.03809
3.96778
3.89936
3.83327
3.76892
3.70675
3.64614
3.58758
3.53044
3.47523
3.42131
3.3692
3.31827
3.26903
3.22089
3.17432
3.12878
3.08469
3.04158
2.9998
2.95897
2.91933
2.88063
2.84297
2.80626
2.77043
2.73556
2.70141
2.66825
2.63564
2.60403
2.57287
2.54266
2.51286
2.48393
2.45544
2.4277
2.40045
2.37385
2.34778
2.32228
2.29733
2.27291
2.24901
2.22564
2.20275
2.18038
2.15847
2.13707
2.11611
2.09566
2.07563
2.05615
2.03704
2.01853
2.00034
1.98281
1.96558
1.949
1.93277
1.9171
1.90188
1.88711
1.87287
1.85898
1.84563
1.83259
1.82005
1.80778
1.79595
1.78431
1.7731
1.76196
1.75123
1.74052
1.73016
1.71983
1.70977
1.69984
1.69008
1.6806
1.67121
1.66224
1.65332
1.64492
1.63657
1.62874
1.62103
1.61371
1.60662
1.59976
1.59321
1.58675
1.58062
1.57453
1.56877
1.56305
1.55773
1.55232
1.54754
1.54244
1.53811
1.53357
1.52964
1.52614
1.52326
1.52039
1.51738
1.51509
1.51305
1.51099
1.50626
1.50594
1.50737
1.51108
1.51643
1.52234
1.53038
1.53782
1.54796
1.55671
1.56848
1.57855
1.59168
1.60342
1.61789
1.63193
1.64785
1.66479
1.68245
1.70225
1.72209
1.74386
1.7662
1.78888
1.81304
1.83644
1.86082
1.88496
1.90932
1.93217
1.95907
1.97719
2.00912
2.02088
2.05487
2.05958
2.05938
2.05971
2.07616
2.07216
14.5688
14.0275
13.5156
13.031
12.5719
12.1366
11.7236
11.3314
10.9588
10.6044
10.2672
9.94614
9.64024
9.3486
9.07038
8.80481
8.55117
8.30876
8.077
7.85523
7.643
7.43967
7.24489
7.05809
6.87897
6.70701
6.54196
6.38335
6.23098
6.0844
5.94349
5.80779
5.67725
5.5514
5.43025
5.31334
5.20073
5.09195
4.98712
4.88573
4.788
4.69337
4.60212
4.51367
4.42834
4.34556
4.26566
4.18809
4.11317
4.04039
3.97005
3.90167
3.83557
3.77124
3.70906
3.64846
3.58991
3.53276
3.47758
3.42362
3.37155
3.32057
3.27138
3.22317
3.17666
3.13104
3.08702
3.04383
3.00213
2.9612
2.92166
2.88287
2.84534
2.80854
2.77287
2.73795
2.70399
2.67082
2.63844
2.60688
2.57597
2.54589
2.51635
2.48764
2.45937
2.43192
2.40485
2.37857
2.35263
2.32745
2.30257
2.27843
2.25455
2.23142
2.20847
2.18631
2.16426
2.14304
2.12189
2.10157
2.0813
2.0619
2.04252
2.02404
2.00556
1.98801
1.97045
1.95384
1.93723
1.92155
1.90591
1.89115
1.87647
1.86262
1.84887
1.83587
1.82298
1.81075
1.79864
1.78705
1.7756
1.76452
1.75362
1.74297
1.73251
1.72226
1.71217
1.70236
1.69263
1.68331
1.67402
1.66524
1.65644
1.6483
1.64004
1.63254
1.62493
1.61792
1.61104
1.60442
1.59818
1.5919
1.58622
1.58024
1.57499
1.56948
1.56442
1.55946
1.5546
1.55016
1.54567
1.54118
1.5375
1.53368
1.52943
1.52665
1.52237
1.51975
1.51591
1.5139
1.50965
1.50801
1.50811
1.51184
1.51757
1.52504
1.53392
1.54322
1.55406
1.56435
1.57634
1.58727
1.60017
1.61202
1.62604
1.63966
1.65518
1.67144
1.6889
1.70795
1.72789
1.74898
1.77161
1.79371
1.81847
1.84073
1.86694
1.88809
1.91595
1.93479
1.96384
1.98154
2.00944
2.02821
2.0523
2.07665
2.08175
2.08102
2.10043
2.09564
14.5688
14.0276
13.5157
13.0311
12.5721
12.1368
11.7239
11.3317
10.9591
10.6048
10.2677
9.9467
9.64087
9.34929
9.07116
8.80565
8.5521
8.30976
8.07809
7.85638
7.64423
7.44097
7.24629
7.05954
6.88052
6.70859
6.54365
6.38506
6.2328
6.08624
5.94544
5.80974
5.6793
5.55344
5.43241
5.31547
5.20298
5.09417
4.98944
4.88803
4.79038
4.69573
4.60455
4.51609
4.43082
4.34802
4.26818
4.19058
4.11572
4.0429
3.97263
3.9042
3.83817
3.77378
3.71167
3.651
3.59253
3.5353
3.4802
3.42615
3.37418
3.32309
3.274
3.22568
3.17928
3.13353
3.08963
3.04629
3.00472
2.96364
2.92425
2.88528
2.84792
2.81093
2.77547
2.74035
2.70664
2.67329
2.64118
2.60951
2.57888
2.54879
2.5195
2.4909
2.46287
2.43566
2.40881
2.38291
2.35719
2.33253
2.30789
2.28439
2.26077
2.23838
2.21571
2.19438
2.17258
2.15224
2.13129
2.11186
2.09171
2.07311
2.05374
2.03594
2.01731
2.00028
1.9824
1.96614
1.94904
1.93359
1.91731
1.90269
1.88728
1.87351
1.859
1.84604
1.83242
1.8202
1.80745
1.79583
1.7839
1.77273
1.76153
1.75072
1.7401
1.72968
1.71947
1.70951
1.69966
1.69013
1.68082
1.67161
1.66298
1.65424
1.64614
1.63814
1.63044
1.62316
1.61589
1.60919
1.60231
1.59608
1.58955
1.58372
1.57748
1.57203
1.56603
1.56087
1.55512
1.55012
1.54489
1.54
1.53563
1.53133
1.52786
1.52458
1.5223
1.52013
1.51865
1.51701
1.5139
1.51212
1.51183
1.51568
1.52143
1.53029
1.53938
1.55028
1.56116
1.57274
1.58444
1.59617
1.60852
1.62078
1.63416
1.64786
1.66288
1.67884
1.69611
1.71458
1.73445
1.75506
1.7773
1.79928
1.82341
1.84539
1.8715
1.89159
1.91984
1.93788
1.96597
1.98518
2.0094
2.03175
2.05315
2.07181
2.10195
2.10238
2.10716
2.11105
14.5688
14.0276
13.5158
13.0313
12.5723
12.1371
11.7242
11.3321
10.9596
10.6053
10.2683
9.94732
9.64157
9.35007
9.07202
8.8066
8.55313
8.31088
8.07928
7.85768
7.6456
7.44244
7.24782
7.06117
6.8822
6.71038
6.54549
6.387
6.23478
6.08832
5.94755
5.81194
5.68154
5.55576
5.43475
5.3179
5.20541
5.09669
4.99195
4.89063
4.79297
4.69841
4.60719
4.51882
4.43351
4.35081
4.27091
4.1934
4.11848
4.04575
3.97541
3.90708
3.84096
3.77668
3.71446
3.65392
3.59532
3.53822
3.48297
3.42908
3.37693
3.32602
3.27675
3.22861
3.182
3.13645
3.09234
3.04919
3.0074
2.96651
2.9269
2.88811
2.85052
2.8137
2.778
2.74302
2.70907
2.67581
2.64348
2.61183
2.58099
2.55086
2.52143
2.49274
2.46465
2.43735
2.41056
2.38459
2.35909
2.33441
2.31018
2.28677
2.26376
2.24159
2.21975
2.19877
2.178
2.15814
2.13836
2.11951
2.10063
2.08267
2.06459
2.04741
2.03008
2.01359
1.99697
1.98114
1.96524
1.95006
1.9349
1.92043
1.90603
1.89233
1.87871
1.86579
1.85294
1.84077
1.82866
1.81715
1.80571
1.79476
1.78389
1.77343
1.76302
1.75302
1.74298
1.73342
1.72373
1.71458
1.70529
1.69652
1.68773
1.67933
1.67114
1.66308
1.65555
1.64783
1.64083
1.63363
1.62684
1.62031
1.61362
1.60762
1.60122
1.59549
1.58943
1.58416
1.57825
1.57335
1.56797
1.56307
1.55821
1.55347
1.54899
1.54535
1.54158
1.53912
1.53639
1.53462
1.53101
1.52967
1.52606
1.5283
1.53261
1.54061
1.54842
1.55855
1.56828
1.57922
1.59002
1.60129
1.61302
1.62509
1.63809
1.65182
1.66664
1.68268
1.69987
1.71826
1.73812
1.75831
1.78073
1.8018
1.82633
1.84736
1.87325
1.89406
1.91956
1.94175
1.96392
1.9894
2.00839
2.03299
2.05605
2.07049
2.1038
2.10699
2.11446
2.11808
14.5688
14.0277
13.5159
13.0315
12.5725
12.1374
11.7245
11.3325
10.96
10.6058
10.2689
9.94802
9.64235
9.35095
9.07297
8.80766
8.55426
8.31213
8.08061
7.85912
7.64711
7.44407
7.24951
7.06298
6.88408
6.71237
6.54753
6.38914
6.23699
6.09061
5.9499
5.81438
5.68401
5.55832
5.43734
5.32057
5.20811
5.09946
4.99474
4.89349
4.79583
4.70134
4.61012
4.52181
4.43649
4.35384
4.27393
4.19648
4.12154
4.04886
3.97849
3.91022
3.84405
3.77984
3.71755
3.65709
3.59841
3.54141
3.48606
3.43227
3.38001
3.3292
3.27982
3.23178
3.18507
3.1396
3.09538
3.05231
3.01041
2.96956
2.92983
2.89105
2.85331
2.81644
2.78054
2.74543
2.7112
2.6777
2.64502
2.61299
2.58173
2.55109
2.52115
2.49184
2.46322
2.43523
2.40793
2.38129
2.35538
2.33011
2.30563
2.28177
2.25875
2.23632
2.2147
2.19366
2.17336
2.15362
2.1345
2.11592
2.09783
2.08025
2.06304
2.04627
2.02982
2.01371
1.99794
1.98242
1.96731
1.95239
1.93795
1.92368
1.9099
1.89635
1.88326
1.87045
1.85802
1.84592
1.83414
1.82267
1.81146
1.80053
1.78981
1.77936
1.76905
1.75901
1.74905
1.73938
1.72976
1.72044
1.7112
1.70224
1.69345
1.68486
1.67664
1.66841
1.66082
1.65298
1.64595
1.63863
1.63192
1.62528
1.61867
1.61272
1.60626
1.6008
1.59471
1.58957
1.58382
1.57926
1.57368
1.56976
1.5649
1.56121
1.5568
1.55383
1.5491
1.54603
1.5418
1.5392
1.53507
1.53369
1.53012
1.53189
1.53614
1.5429
1.55086
1.55991
1.57007
1.58011
1.5914
1.60197
1.61415
1.62575
1.63914
1.65264
1.66776
1.6837
1.70113
1.71937
1.73959
1.75937
1.78242
1.80287
1.828
1.84885
1.87449
1.89634
1.92051
1.94444
1.96564
1.99137
2.01185
2.03392
2.05984
2.07435
2.10317
2.11867
2.12446
2.13232
14.5689
14.0278
13.5161
13.0317
12.5727
12.1377
11.7249
11.3329
10.9605
10.6064
10.2695
9.9488
9.64321
9.35191
9.07404
8.80882
8.55553
8.3135
8.08208
7.8607
7.64879
7.44586
7.2514
7.06498
6.88616
6.71455
6.54979
6.39151
6.23942
6.09314
5.95248
5.81706
5.68673
5.56114
5.44018
5.32352
5.21106
5.10251
4.99779
4.89663
4.79896
4.70455
4.61333
4.52508
4.43977
4.35716
4.27727
4.19983
4.12492
4.05224
3.9819
3.91361
3.84749
3.78325
3.721
3.66051
3.60186
3.54483
3.48951
3.43569
3.38347
3.33261
3.28327
3.23517
3.18851
3.14297
3.09881
3.05563
3.01379
2.97282
2.93312
2.89416
2.85642
2.81932
2.78334
2.74791
2.71352
2.67959
2.64662
2.61405
2.58239
2.55109
2.52069
2.49064
2.46152
2.43275
2.40498
2.37756
2.35125
2.32528
2.30051
2.27606
2.25289
2.22997
2.20836
2.18692
2.16677
2.14672
2.12786
2.10904
2.09129
2.07352
2.05669
2.03982
2.02373
2.00763
1.99217
1.97677
1.9619
1.94717
1.93288
1.91882
1.90514
1.89175
1.8787
1.86597
1.85354
1.84145
1.82959
1.81808
1.80673
1.79575
1.78484
1.77434
1.76383
1.75377
1.74365
1.734
1.72428
1.71504
1.70575
1.69696
1.68814
1.67983
1.67155
1.66367
1.65602
1.64854
1.64143
1.63446
1.62766
1.62131
1.61472
1.60888
1.60265
1.59713
1.59133
1.58627
1.58077
1.57627
1.57121
1.56736
1.56292
1.55936
1.55538
1.55253
1.54919
1.54728
1.54492
1.54201
1.53982
1.53513
1.53526
1.53822
1.54362
1.54967
1.55794
1.56569
1.5759
1.58471
1.59624
1.60601
1.61868
1.62982
1.64379
1.65693
1.67254
1.68808
1.70575
1.72358
1.74371
1.7633
1.78574
1.80683
1.83022
1.85341
1.87563
1.90154
1.92167
1.94913
1.96884
1.99415
2.01783
2.03618
2.06559
2.0799
2.1066
2.11478
2.1155
2.12764
14.5689
14.0279
13.5162
13.0319
12.573
12.138
11.7253
11.3334
10.9611
10.6071
10.2703
9.94965
9.64418
9.35297
9.07522
8.81011
8.55695
8.31501
8.08373
7.86245
7.65066
7.44783
7.25349
7.06717
6.88846
6.71695
6.55229
6.39411
6.24209
6.09592
5.95532
5.82001
5.68972
5.56424
5.44331
5.32675
5.2143
5.10585
5.00113
4.90007
4.8024
4.70807
4.61685
4.52866
4.44337
4.36078
4.28093
4.20349
4.12862
4.05593
3.98564
3.91733
3.85125
3.78698
3.72478
3.66425
3.60564
3.54858
3.4933
3.43943
3.38725
3.33633
3.28705
3.23887
3.19227
3.14664
3.10255
3.05928
3.01752
2.97643
2.93681
2.89774
2.86008
2.82285
2.78695
2.75138
2.71707
2.68298
2.65011
2.61736
2.58583
2.55432
2.52409
2.49382
2.46494
2.43595
2.40849
2.38089
2.35496
2.32884
2.30451
2.27994
2.2572
2.23419
2.21299
2.19145
2.17165
2.15147
2.13291
2.11392
2.09641
2.07846
2.06183
2.04479
2.02886
2.01267
1.99732
1.98195
1.96708
1.9525
1.93812
1.92425
1.91041
1.89716
1.88391
1.8712
1.85854
1.84632
1.8342
1.82248
1.81081
1.7996
1.78831
1.77761
1.7667
1.75646
1.74599
1.73615
1.72619
1.71673
1.70733
1.69826
1.68947
1.6808
1.67261
1.66436
1.6567
1.64894
1.64168
1.63449
1.62749
1.62089
1.61422
1.60799
1.60178
1.59581
1.59012
1.58452
1.57929
1.57423
1.5694
1.56489
1.56062
1.55678
1.55337
1.55065
1.54824
1.54735
1.54403
1.54388
1.54165
1.53912
1.53851
1.54015
1.54463
1.54951
1.55741
1.56464
1.57507
1.58395
1.59615
1.60628
1.61994
1.6313
1.64649
1.65938
1.67633
1.69106
1.70997
1.72677
1.74765
1.76661
1.78892
1.81031
1.83262
1.85706
1.87777
1.9051
1.9244
1.95213
1.97301
1.99695
2.02296
2.04057
2.07089
2.0862
2.11137
2.13808
2.13843
2.14381
14.5689
14.028
13.5164
13.0321
12.5733
12.1384
11.7257
11.334
10.9617
10.6078
10.2711
9.95059
9.64524
9.35415
9.07653
8.81153
8.5585
8.31669
8.08553
7.86437
7.65272
7.45
7.25579
7.06957
6.89099
6.71958
6.55504
6.39695
6.24504
6.09896
5.95845
5.82322
5.69302
5.56761
5.44675
5.33026
5.21787
5.10948
5.00481
4.9038
4.80617
4.71189
4.6207
4.53257
4.44727
4.36476
4.28488
4.20753
4.13261
4.06001
3.98966
3.92144
3.85528
3.79111
3.72883
3.6684
3.6097
3.55271
3.49736
3.44355
3.3913
3.34045
3.29107
3.24298
3.19628
3.15075
3.10653
3.0634
3.02148
2.98059
2.94081
2.90201
2.8642
2.82732
2.79134
2.75622
2.72194
2.6884
2.65572
2.62364
2.59248
2.56177
2.53214
2.50277
2.47468
2.44668
2.42018
2.39364
2.36874
2.34371
2.32038
2.29689
2.27505
2.25305
2.23258
2.21196
2.1927
2.1733
2.15508
2.13672
2.11938
2.10191
2.0853
2.06864
2.05262
2.03672
2.0212
2.00605
1.99097
1.97654
1.96188
1.94811
1.93392
1.92069
1.907
1.89422
1.88104
1.86863
1.85596
1.84393
1.8317
1.8201
1.80828
1.79717
1.78577
1.77518
1.76425
1.75419
1.7438
1.73425
1.72447
1.71536
1.70626
1.6975
1.68909
1.68068
1.67288
1.66492
1.65759
1.65022
1.6433
1.63648
1.63009
1.62356
1.61779
1.61152
1.60626
1.60043
1.5955
1.59025
1.58553
1.58081
1.57648
1.57225
1.56881
1.56561
1.56315
1.56123
1.55981
1.55854
1.55781
1.55563
1.55368
1.54937
1.55071
1.5538
1.56031
1.56653
1.57617
1.5843
1.59612
1.60555
1.61922
1.62995
1.64552
1.65787
1.67544
1.68975
1.70926
1.72576
1.74701
1.76576
1.78825
1.80946
1.83199
1.8562
1.87747
1.90441
1.92501
1.95188
1.97495
1.99812
2.02533
2.04645
2.07138
2.09889
2.11305
2.15029
2.15278
2.15005
14.569
14.0281
13.5166
13.0324
12.5737
12.1388
11.7262
11.3346
10.9624
10.6087
10.2721
9.95165
9.64642
9.35546
9.07796
8.81311
8.56021
8.31854
8.08752
7.8665
7.65498
7.4524
7.25832
7.07223
6.89377
6.72248
6.55805
6.40007
6.24827
6.10229
5.96188
5.82674
5.69663
5.5713
5.45052
5.33409
5.22178
5.11344
5.00884
4.90787
4.8103
4.71606
4.62492
4.53682
4.45155
4.36908
4.28921
4.2119
4.13699
4.06442
3.99407
3.92588
3.85972
3.79557
3.73328
3.67286
3.61416
3.55717
3.50181
3.44801
3.39574
3.34489
3.2955
3.24741
3.20067
3.15518
3.1109
3.06784
3.02585
2.98507
2.94524
2.90659
2.86878
2.83212
2.79622
2.76141
2.72733
2.69421
2.66189
2.63035
2.59973
2.56967
2.54072
2.5121
2.4848
2.45762
2.43192
2.40619
2.38202
2.35775
2.33503
2.31222
2.29084
2.26941
2.24926
2.2291
2.21006
2.19098
2.17291
2.15474
2.13749
2.1201
2.10351
2.08681
2.07073
2.05471
2.039
2.02366
2.00825
1.99358
1.97844