/*--------------------------------*- C++ -*----------------------------------*\
  =========                 |
  \\      /  F ield         | OpenFOAM: The Open Source CFD Toolbox
   \\    /   O peration     | Website:  https://openfoam.org
    \\  /    A nd           | Version:  8
     \\/     M anipulation  |
\*---------------------------------------------------------------------------*/
FoamFile
{
    version     2.0;
    format      ascii;
    class       volScalarField;
    location    "101";
    object      k;
}
// * * * * * * * * * * * * * * * * * * * * * * * * * * * * * * * * * * * * * //

dimensions      [0 2 -2 0 0 0 0];

internalField   nonuniform List<scalar> 
65000
(
0.371234
0.363978
0.356995
0.350262
0.343777
0.337518
0.331482
0.325652
0.320026
0.314587
0.309332
0.304249
0.299334
0.294578
0.289973
0.285515
0.281195
0.277012
0.272953
0.269023
0.265205
0.261508
0.257911
0.254429
0.251038
0.247754
0.244553
0.241453
0.238427
0.235497
0.232635
0.229864
0.227153
0.224529
0.221959
0.219471
0.217033
0.214672
0.212358
0.210115
0.207916
0.205783
0.203692
0.201661
0.199672
0.197737
0.195843
0.193998
0.192193
0.190433
0.188711
0.187031
0.185386
0.183783
0.182211
0.180678
0.179175
0.177709
0.176272
0.174868
0.173494
0.172148
0.170834
0.169543
0.168285
0.167046
0.165841
0.164651
0.163494
0.162348
0.161233
0.160125
0.159044
0.157965
0.156908
0.155848
0.154802
0.153753
0.152711
0.151667
0.150623
0.149586
0.148548
0.147527
0.146508
0.145524
0.144548
0.143623
0.142717
0.141876
0.141064
0.140326
0.139626
0.138998
0.138415
0.137892
0.137417
0.136982
0.136593
0.136219
0.135885
0.135542
0.135228
0.134888
0.134563
0.134205
0.133846
0.133458
0.133052
0.132633
0.132181
0.131735
0.13125
0.130786
0.130287
0.129814
0.129321
0.128847
0.128376
0.127913
0.127471
0.127027
0.126615
0.126197
0.125809
0.125421
0.125054
0.124694
0.124344
0.124008
0.123676
0.123363
0.123052
0.122761
0.122475
0.122207
0.121946
0.121701
0.121466
0.121241
0.121031
0.120819
0.12063
0.12043
0.120251
0.120066
0.119887
0.119716
0.119534
0.119373
0.11919
0.119028
0.118832
0.118662
0.118432
0.118286
0.118137
0.118104
0.118206
0.118528
0.119068
0.119782
0.120719
0.121783
0.123032
0.124337
0.125768
0.127188
0.128675
0.130112
0.131564
0.132961
0.134336
0.135666
0.136951
0.138198
0.139391
0.140543
0.141641
0.142684
0.143685
0.14462
0.145524
0.146378
0.147175
0.147996
0.148678
0.149491
0.150082
0.150869
0.151401
0.152154
0.152614
0.153324
0.15378
0.154243
0.15495
0.154916
0.154813
0.154749
0.371234
0.363979
0.356994
0.350263
0.343776
0.337519
0.331482
0.325654
0.320025
0.314588
0.309331
0.304251
0.299334
0.29458
0.289973
0.285518
0.281195
0.277014
0.272954
0.269025
0.265207
0.26151
0.257914
0.254431
0.251041
0.247756
0.244556
0.241455
0.238431
0.2355
0.232639
0.229867
0.227157
0.224532
0.221963
0.219475
0.217038
0.214676
0.212363
0.210119
0.207922
0.205786
0.203698
0.201665
0.199678
0.197741
0.195849
0.194002
0.192199
0.190437
0.188717
0.187035
0.185393
0.183786
0.182217
0.180681
0.179181
0.177712
0.176278
0.174872
0.173499
0.172152
0.170839
0.169547
0.16829
0.16705
0.165846
0.164655
0.163499
0.162352
0.161238
0.160128
0.159048
0.157966
0.156907
0.155843
0.154795
0.153741
0.152695
0.151645
0.1506
0.149558
0.148522
0.147499
0.14649
0.145508
0.14455
0.143635
0.142755
0.141932
0.141155
0.140443
0.139785
0.139191
0.138655
0.138175
0.13775
0.137364
0.137028
0.13671
0.136434
0.136154
0.135903
0.135636
0.135379
0.135103
0.134818
0.13452
0.134193
0.133865
0.133498
0.133138
0.132739
0.13235
0.131932
0.131519
0.131096
0.130669
0.130251
0.12982
0.129413
0.128989
0.128594
0.128185
0.127799
0.127409
0.127033
0.126659
0.126292
0.125931
0.125577
0.125229
0.124891
0.124559
0.12424
0.12393
0.123632
0.123348
0.123073
0.122813
0.122564
0.122323
0.1221
0.121874
0.121671
0.12146
0.121268
0.12107
0.120881
0.120694
0.120503
0.12032
0.120119
0.11992
0.119702
0.119485
0.119293
0.119161
0.119207
0.119442
0.119923
0.120575
0.121459
0.122479
0.123695
0.124985
0.126409
0.127846
0.129348
0.130821
0.132299
0.133732
0.135125
0.136469
0.137752
0.138973
0.140139
0.141213
0.14226
0.143184
0.144117
0.144918
0.145744
0.146478
0.147206
0.147936
0.148582
0.149332
0.149943
0.150676
0.151301
0.151975
0.152624
0.15318
0.153913
0.154239
0.155042
0.155142
0.155204
0.155121
0.371233
0.36398
0.356994
0.350264
0.343776
0.33752
0.331482
0.325655
0.320025
0.31459
0.309332
0.304254
0.299335
0.294582
0.289974
0.285521
0.281198
0.277018
0.272957
0.269029
0.26521
0.261514
0.257918
0.254436
0.251046
0.247762
0.244562
0.241461
0.238437
0.235507
0.232646
0.229874
0.227165
0.224539
0.221972
0.219482
0.217047
0.214683
0.212372
0.210126
0.207931
0.205795
0.203708
0.201674
0.199688
0.19775
0.195859
0.194012
0.192209
0.190447
0.188727
0.187045
0.185403
0.183797
0.182227
0.180693
0.179191
0.177725
0.176288
0.174884
0.173509
0.172165
0.170849
0.16956
0.168302
0.167064
0.165859
0.164669
0.163514
0.162369
0.161256
0.160151
0.159072
0.157998
0.156944
0.155894
0.154856
0.153823
0.152795
0.151776
0.15076
0.149758
0.148764
0.147792
0.146837
0.145913
0.145018
0.144164
0.143353
0.142589
0.141879
0.141219
0.14062
0.140069
0.139579
0.139129
0.138736
0.138371
0.138053
0.137749
0.137478
0.13721
0.136959
0.136704
0.136447
0.136188
0.135908
0.135631
0.135317
0.135014
0.134666
0.134331
0.133953
0.133588
0.133187
0.132795
0.132377
0.131966
0.131539
0.131118
0.130689
0.130265
0.129841
0.129419
0.129003
0.128589
0.128184
0.127779
0.127386
0.126994
0.126614
0.126238
0.125873
0.125517
0.125171
0.124837
0.124513
0.124201
0.123902
0.123611
0.123339
0.123065
0.122816
0.122562
0.122328
0.122097
0.121872
0.121657
0.121441
0.121235
0.121033
0.120825
0.120628
0.120407
0.120193
0.11996
0.11975
0.119595
0.119609
0.119786
0.120241
0.120864
0.121739
0.122754
0.123982
0.125297
0.126761
0.128258
0.129829
0.131389
0.132951
0.134471
0.135939
0.137338
0.138666
0.139886
0.141058
0.142076
0.143097
0.143927
0.144817
0.145507
0.146294
0.146921
0.147629
0.148275
0.148927
0.149635
0.150267
0.15102
0.151663
0.152422
0.153068
0.153777
0.154459
0.154978
0.155804
0.155944
0.155866
0.156354
0.371233
0.36398
0.356994
0.350265
0.343777
0.337521
0.331483
0.325656
0.320027
0.314592
0.309334
0.304256
0.299338
0.294585
0.289978
0.285524
0.281202
0.277022
0.272962
0.269035
0.265216
0.26152
0.257924
0.254443
0.251053
0.24777
0.24457
0.24147
0.238446
0.235516
0.232656
0.229884
0.227175
0.22455
0.221983
0.219494
0.217059
0.214696
0.212385
0.21014
0.207944
0.205809
0.20372
0.201689
0.199701
0.197766
0.195872
0.194028
0.192222
0.190464
0.188741
0.187062
0.185417
0.183814
0.182242
0.18071
0.179208
0.177742
0.176305
0.174903
0.173528
0.172184
0.170869
0.16958
0.168322
0.167085
0.165881
0.164692
0.163537
0.162395
0.161283
0.160184
0.159107
0.158045
0.156996
0.155966
0.15494
0.153937
0.152932
0.151955
0.150973
0.150026
0.149079
0.148172
0.147275
0.146421
0.14559
0.144805
0.144056
0.14335
0.142692
0.142072
0.141506
0.140971
0.140489
0.14003
0.139617
0.13922
0.138857
0.138503
0.13817
0.13784
0.13752
0.137197
0.136873
0.136544
0.136204
0.135859
0.135498
0.135131
0.134747
0.134356
0.133949
0.133535
0.133107
0.132677
0.132231
0.131791
0.131332
0.130886
0.130424
0.129976
0.129519
0.129074
0.128629
0.128192
0.127763
0.127339
0.126929
0.126525
0.126137
0.125756
0.125392
0.125036
0.124699
0.124368
0.124054
0.123749
0.123456
0.123174
0.1229
0.122636
0.122383
0.122133
0.1219
0.121663
0.121447
0.121226
0.121024
0.120818
0.120633
0.120438
0.120253
0.120059
0.119848
0.11965
0.119463
0.119407
0.11947
0.119735
0.120238
0.120907
0.12181
0.122854
0.124108
0.125457
0.126965
0.128516
0.130163
0.1318
0.133463
0.135064
0.136636
0.138091
0.139502
0.140744
0.141964
0.142977
0.144008
0.144821
0.145692
0.146363
0.147113
0.14773
0.148389
0.149047
0.14964
0.150395
0.150967
0.151806
0.152402
0.153267
0.15392
0.154695
0.155497
0.155982
0.157046
0.157112
0.156997
0.156978
0.371234
0.36398
0.356995
0.350265
0.343778
0.337521
0.331485
0.325658
0.32003
0.314594
0.309337
0.304258
0.299341
0.294589
0.289982
0.285529
0.281207
0.277028
0.272968
0.269042
0.265223
0.261529
0.257933
0.254452
0.251063
0.24778
0.244581
0.241481
0.238458
0.235529
0.23267
0.229897
0.22719
0.224564
0.221999
0.219509
0.217076
0.214713
0.212402
0.210158
0.207961
0.205828
0.203738
0.201709
0.199719
0.197787
0.195891
0.19405
0.192242
0.190486
0.188761
0.187085
0.185439
0.183837
0.182265
0.180734
0.179231
0.177766
0.17633
0.174927
0.173554
0.17221
0.170896
0.169607
0.168349
0.167113
0.165908
0.164721
0.163564
0.162425
0.161311
0.160216
0.159139
0.158082
0.157038
0.156015
0.155
0.154008
0.15302
0.15206
0.151105
0.150182
0.14927
0.148394
0.147537
0.146719
0.14593
0.14518
0.144468
0.143792
0.143158
0.142555
0.141994
0.141456
0.140957
0.140471
0.140016
0.139567
0.139141
0.138714
0.138302
0.137882
0.137471
0.137046
0.136629
0.136192
0.135764
0.135313
0.134873
0.134409
0.133956
0.133482
0.133017
0.132539
0.132064
0.131587
0.131104
0.130633
0.130147
0.129682
0.1292
0.128743
0.128272
0.127825
0.127371
0.12694
0.126505
0.126099
0.125685
0.12531
0.124923
0.124579
0.124228
0.123912
0.1236
0.123307
0.123033
0.122762
0.122518
0.122271
0.122048
0.121827
0.121617
0.121422
0.121224
0.121052
0.120869
0.120714
0.12055
0.120406
0.120256
0.120116
0.119944
0.119783
0.119583
0.119415
0.119378
0.11946
0.119697
0.120082
0.120634
0.121331
0.12222
0.123241
0.124453
0.125764
0.127238
0.128766
0.130414
0.132064
0.133775
0.135425
0.137077
0.138605
0.140098
0.141419
0.142701
0.143786
0.144851
0.145726
0.146602
0.14733
0.148054
0.148732
0.149328
0.15006
0.150565
0.151401
0.151888
0.152813
0.153337
0.154323
0.154903
0.155834
0.156615
0.157172
0.158335
0.158365
0.15859
0.158331
0.371234
0.36398
0.356996
0.350266
0.343779
0.337523
0.331486
0.32566
0.320032
0.314597
0.309341
0.304262
0.299346
0.294593
0.289988
0.285534
0.281214
0.277035
0.272977
0.269049
0.265233
0.261538
0.257945
0.254463
0.251076
0.247792
0.244596
0.241494
0.238475
0.235543
0.232688
0.229913
0.227211
0.224581
0.222021
0.219527
0.217098
0.214732
0.212425
0.210179
0.207985
0.205851
0.203763
0.201733
0.199745
0.197812
0.195918
0.194075
0.19227
0.190512
0.18879
0.187112
0.185468
0.183865
0.182295
0.180762
0.179262
0.177796
0.176361
0.174958
0.173585
0.172241
0.170927
0.169639
0.16838
0.167145
0.165938
0.164754
0.163594
0.162457
0.16134
0.160246
0.159166
0.15811
0.157064
0.156042
0.155026
0.154035
0.153051
0.152094
0.151147
0.15023
0.14933
0.148463
0.147621
0.146815
0.146043
0.145306
0.144608
0.143943
0.143317
0.142719
0.142155
0.141611
0.141094
0.140588
0.140101
0.139616
0.139142
0.138661
0.138187
0.137699
0.137217
0.136716
0.136223
0.135709
0.135204
0.13468
0.134166
0.133639
0.133121
0.132598
0.132082
0.13157
0.131059
0.130564
0.130061
0.129588
0.129096
0.128644
0.128168
0.127737
0.127281
0.126869
0.126437
0.126046
0.12564
0.125274
0.124899
0.124557
0.12422
0.123902
0.123605
0.123314
0.123053
0.122791
0.12256
0.122327
0.122119
0.121918
0.121726
0.121553
0.121377
0.121226
0.121069
0.120937
0.120798
0.120689
0.120561
0.120475
0.120361
0.120274
0.120146
0.120027
0.119847
0.119682
0.119631
0.119707
0.119937
0.120319
0.120846
0.121517
0.122353
0.123326
0.12447
0.125732
0.127149
0.128653
0.130282
0.131953
0.133695
0.135414
0.137139
0.138774
0.140357
0.1418
0.143164
0.144366
0.145489
0.146465
0.147366
0.148183
0.148892
0.149659
0.150205
0.151019
0.151471
0.152359
0.152829
0.153768
0.15432
0.155311
0.155945
0.156918
0.157695
0.158482
0.159507
0.159572
0.159565
0.159479
0.371234
0.363981
0.356996
0.350268
0.34378
0.337525
0.331488
0.325663
0.320034
0.314601
0.309344
0.304267
0.299351
0.2946
0.289994
0.285542
0.281222
0.277044
0.272987
0.26906
0.265245
0.26155
0.257958
0.254477
0.251091
0.247808
0.244613
0.241512
0.238494
0.235562
0.232708
0.229934
0.227232
0.224604
0.222044
0.219552
0.217123
0.214759
0.212452
0.210206
0.208014
0.205879
0.203793
0.201762
0.199776
0.197842
0.19595
0.194107
0.192303
0.190545
0.188824
0.187145
0.185503
0.183899
0.182331
0.180797
0.179298
0.177831
0.176397
0.174993
0.173621
0.172277
0.170963
0.169675
0.168416
0.167182
0.165974
0.164791
0.163629
0.162493
0.161373
0.16028
0.159196
0.158141
0.15709
0.156068
0.155047
0.154057
0.153068
0.152112
0.15116
0.150245
0.149339
0.148474
0.147625
0.14682
0.146038
0.145297
0.144586
0.143911
0.143266
0.142651
0.142062
0.141493
0.140944
0.140406
0.139879
0.139355
0.138834
0.138311
0.137787
0.137255
0.136721
0.136178
0.135633
0.135083
0.13453
0.13398
0.133426
0.132883
0.132336
0.131809
0.131277
0.130773
0.130261
0.129787
0.129297
0.128856
0.128391
0.127983
0.127546
0.127166
0.126759
0.126404
0.126027
0.125696
0.12535
0.125042
0.124728
0.124444
0.124164
0.123902
0.123656
0.123416
0.123203
0.122985
0.122802
0.122605
0.122447
0.122273
0.122133
0.121982
0.121855
0.121727
0.121607
0.121504
0.121386
0.121308
0.121194
0.121128
0.121027
0.120965
0.120858
0.12077
0.120611
0.120417
0.120219
0.120209
0.12033
0.120633
0.121073
0.12167
0.122413
0.123317
0.124378
0.125597
0.126959
0.128452
0.130058
0.131754
0.133508
0.135289
0.137056
0.138778
0.14042
0.141958
0.143382
0.144669
0.145846
0.146885
0.14783
0.148695
0.149433
0.150239
0.150808
0.15166
0.15213
0.153064
0.153551
0.154535
0.155131
0.156163
0.156863
0.1579
0.15871
0.159564
0.160681
0.161147
0.161078
0.161229
0.371233
0.363982
0.356996
0.35027
0.343781
0.337528
0.33149
0.325667
0.320037
0.314606
0.309348
0.304274
0.299356
0.294608
0.290002
0.285551
0.281231
0.277055
0.272998
0.269073
0.265258
0.261565
0.257973
0.254495
0.251108
0.247828
0.244631
0.241535
0.238514
0.235587
0.23273
0.229961
0.227256
0.224633
0.22207
0.219583
0.217151
0.214791
0.212482
0.21024
0.208045
0.205914
0.203826
0.201798
0.199811
0.19788
0.195987
0.194145
0.192341
0.190584
0.188863
0.187186
0.185542
0.18394
0.18237
0.180839
0.179338
0.177873
0.176438
0.175035
0.173663
0.172318
0.171005
0.169717
0.168459
0.167224
0.166017
0.164834
0.163672
0.162538
0.161416
0.160325
0.159238
0.158187
0.157129
0.156112
0.155081
0.154094
0.153091
0.152134
0.151162
0.150238
0.149303
0.148419
0.147529
0.146691
0.145855
0.145068
0.144288
0.143555
0.14283
0.142145
0.141468
0.140825
0.140186
0.139574
0.138959
0.138367
0.137767
0.137185
0.136593
0.136017
0.135429
0.134858
0.134276
0.133715
0.133142
0.132597
0.132041
0.131517
0.130984
0.130487
0.129982
0.129518
0.129044
0.128616
0.128175
0.127785
0.127377
0.127022
0.126647
0.126321
0.125979
0.125676
0.125365
0.125079
0.124796
0.124526
0.12427
0.124015
0.123785
0.123547
0.123342
0.123122
0.122941
0.12274
0.122582
0.122403
0.122265
0.122108
0.121987
0.121854
0.121744
0.121635
0.121527
0.121443
0.121332
0.121267
0.121157
0.121096
0.120994
0.12094
0.120833
0.120755
0.120609
0.120441
0.120171
0.120109
0.120172
0.120452
0.120864
0.121469
0.122203
0.123136
0.1242
0.125453
0.126824
0.128355
0.129971
0.131701
0.133464
0.135275
0.137049
0.138798
0.140452
0.142013
0.143461
0.144762
0.145975
0.147022
0.148008
0.148885
0.149668
0.150494
0.151116
0.151991
0.152535
0.153487
0.154077
0.155067
0.155814
0.156787
0.157726
0.158601
0.159767
0.160361
0.161791
0.161969
0.162315
0.162123
0.371233
0.363984
0.356997
0.350272
0.343782
0.337532
0.331492
0.325672
0.320041
0.314612
0.309353
0.304282
0.299363
0.294617
0.29001
0.285563
0.281242
0.277069
0.27301
0.269089
0.265273
0.261584
0.25799
0.254515
0.251127
0.247851
0.244653
0.24156
0.238538
0.235616
0.232757
0.229992
0.227285
0.224666
0.2221
0.219618
0.217184
0.214828
0.212517
0.210278
0.208082
0.205954
0.203866
0.201839
0.199852
0.197922
0.196029
0.194189
0.192384
0.190629
0.188907
0.187232
0.185587
0.183987
0.182416
0.180886
0.179384
0.177921
0.176485
0.175083
0.17371
0.172367
0.171054
0.169766
0.168508
0.167274
0.166067
0.164885
0.163723
0.162593
0.16147
0.160387
0.159297
0.158256
0.157196
0.156191
0.155157
0.154182
0.153171
0.152223
0.151236
0.150314
0.149353
0.148457
0.147528
0.146662
0.145769
0.144936
0.144081
0.143282
0.142464
0.141699
0.140914
0.140178
0.139417
0.138706
0.137965
0.137273
0.13655
0.135875
0.135169
0.134512
0.133827
0.133191
0.132532
0.13192
0.131292
0.130711
0.130117
0.129574
0.129018
0.128516
0.128002
0.127543
0.127072
0.126657
0.126229
0.125855
0.125469
0.12513
0.124784
0.12447
0.124159
0.123861
0.123576
0.123288
0.123024
0.122744
0.122495
0.122224
0.121989
0.121728
0.121508
0.121262
0.121057
0.120833
0.120644
0.120445
0.120277
0.120104
0.119958
0.119816
0.119686
0.119575
0.119453
0.119369
0.119253
0.119181
0.119068
0.119006
0.118893
0.118821
0.118672
0.118579
0.118419
0.118267
0.118276
0.118458
0.118765
0.11925
0.119848
0.120638
0.121551
0.122659
0.123874
0.125269
0.126743
0.128367
0.130035
0.131809
0.133577
0.135392
0.137141
0.138874
0.140494
0.142036
0.143454
0.144747
0.145937
0.147002
0.14797
0.148892
0.149668
0.150552
0.151202
0.152117
0.152753
0.153698
0.154459
0.155384
0.156367
0.15722
0.158441
0.159159
0.16057
0.161112
0.162414
0.162691
0.162804
0.163184
0.371233
0.363985
0.356998
0.350274
0.343785
0.337535
0.331496
0.325676
0.320046
0.314617
0.309361
0.304288
0.299373
0.294626
0.290022
0.285573
0.281257
0.277081
0.273028
0.269104
0.265293
0.261601
0.258013
0.254535
0.251154
0.247874
0.244682
0.241586
0.238569
0.235644
0.23279
0.230023
0.22732
0.2247
0.222138
0.219654
0.217224
0.214866
0.212559
0.210319
0.208127
0.205996
0.203912
0.201884
0.1999
0.197968
0.196078
0.194236
0.192435
0.190678
0.188958
0.187282
0.185639
0.184039
0.182469
0.180939
0.179438
0.177975
0.176539
0.175138
0.173765
0.172422
0.171109
0.169822
0.168564
0.167331
0.166124
0.164945
0.163783
0.162657
0.161537
0.16046
0.159378
0.158347
0.1573
0.156308
0.155293
0.154337
0.15335
0.152423
0.151461
0.150559
0.149622
0.14874
0.147826
0.146962
0.146069
0.14522
0.144347
0.143512
0.142653
0.14183
0.140981
0.140171
0.139329
0.138529
0.137693
0.136904
0.136077
0.135299
0.134488
0.133726
0.132942
0.132202
0.131452
0.130741
0.130033
0.12936
0.128698
0.128071
0.12746
0.126883
0.126326
0.125802
0.1253
0.124829
0.124381
0.123958
0.123557
0.123175
0.122815
0.122459
0.122131
0.121792
0.121487
0.121156
0.120868
0.120543
0.120268
0.119955
0.11969
0.119396
0.119141
0.118876
0.118633
0.118405
0.118179
0.117986
0.11779
0.117626
0.117465
0.117326
0.117196
0.117076
0.116972
0.116865
0.116767
0.116672
0.116561
0.11647
0.116319
0.116184
0.115975
0.115789
0.115744
0.115855
0.116132
0.11657
0.11716
0.117905
0.118808
0.119865
0.121059
0.12239
0.123817
0.125368
0.12697
0.128674
0.130385
0.132168
0.133914
0.13569
0.137382
0.139056
0.14061
0.142102
0.143457
0.144731
0.145864
0.14695
0.147873
0.148844
0.149608
0.150537
0.151235
0.152155
0.152915
0.153816
0.154749
0.155617
0.156759
0.157583
0.158905
0.159636
0.16107
0.161705
0.162828
0.163886
0.163908
0.163809
0.371234
0.363984
0.357001
0.350274
0.343789
0.337536
0.331501
0.325679
0.320053
0.314622
0.30937
0.304295
0.299384
0.294635
0.290036
0.285585
0.281273
0.277096
0.273048
0.269122
0.265316
0.261622
0.258039
0.25456
0.251182
0.247901
0.244713
0.241617
0.238603
0.235678
0.232827
0.23006
0.22736
0.22474
0.22218
0.219696
0.217268
0.214911
0.212606
0.210366
0.208176
0.206045
0.203963
0.201935
0.199952
0.198021
0.196132
0.194291
0.19249
0.190734
0.189016
0.187339
0.185698
0.184097
0.182529
0.180999
0.1795
0.178035
0.176602
0.1752
0.173829
0.172486
0.171172
0.169886
0.168627
0.167397
0.166188
0.165012
0.16385
0.162726
0.16161
0.160535
0.159462
0.158434
0.157402
0.156416
0.155421
0.154474
0.153513
0.152597
0.151665
0.150774
0.149867
0.148992
0.148106
0.147241
0.146367
0.145506
0.144639
0.143779
0.14291
0.142048
0.141174
0.14031
0.139428
0.138564
0.137676
0.136814
0.135929
0.135073
0.134198
0.133353
0.132499
0.131673
0.13085
0.130053
0.129268
0.128508
0.127769
0.127056
0.126369
0.125709
0.12508
0.124476
0.123908
0.12336
0.122849
0.122355
0.121892
0.121442
0.121017
0.120598
0.120201
0.119802
0.119428
0.11904
0.118686
0.118311
0.117976
0.117621
0.117307
0.116983
0.116691
0.116409
0.116141
0.115906
0.115669
0.115473
0.115276
0.115108
0.114951
0.114805
0.114679
0.114551
0.11444
0.114328
0.114212
0.114109
0.113969
0.113834
0.113648
0.11345
0.11327
0.113253
0.113387
0.113709
0.114237
0.114915
0.115808
0.116831
0.118051
0.119372
0.120835
0.122375
0.123996
0.125677
0.127386
0.12914
0.130883
0.132648
0.134369
0.136085
0.13772
0.13932
0.140804
0.142233
0.143525
0.144762
0.145852
0.146924
0.147838
0.148805
0.149605
0.150524
0.151297
0.152203
0.153045
0.153953
0.154927
0.155848
0.156968
0.15789
0.159116
0.160018
0.161236
0.162095
0.163174
0.164086
0.164608
0.165142
0.371236
0.363984
0.357003
0.350276
0.343792
0.337539
0.331507
0.325683
0.320061
0.314629
0.309379
0.304304
0.299396
0.294646
0.290051
0.2856
0.281291
0.277114
0.273068
0.269143
0.265339
0.261647
0.258065
0.254589
0.251211
0.247934
0.244745
0.241653
0.238639
0.235717
0.232866
0.230102
0.227402
0.224785
0.222225
0.219744
0.217316
0.214962
0.212656
0.21042
0.208227
0.206102
0.204016
0.201994
0.200007
0.198083
0.196189
0.194355
0.192548
0.1908
0.189075
0.187407
0.18576
0.184166
0.182592
0.181069
0.179565
0.178106
0.176668
0.175272
0.173896
0.172558
0.17124
0.16996
0.168696
0.16747
0.166257
0.165085
0.163921
0.1628
0.161683
0.16061
0.159538
0.158512
0.157483
0.1565
0.155511
0.154568
0.153615
0.152706
0.151786
0.150902
0.15001
0.149143
0.148274
0.147417
0.146565
0.145712
0.14487
0.14402
0.14318
0.142332
0.14149
0.140644
0.139798
0.138954
0.138104
0.137263
0.136414
0.135576
0.134734
0.1339
0.133071
0.132247
0.131435
0.130629
0.129839
0.129061
0.1283
0.127558
0.126836
0.126136
0.125464
0.12481
0.124195
0.12359
0.12303
0.122473
0.12196
0.121446
0.120968
0.120488
0.120034
0.119576
0.119141
0.1187
0.118282
0.117861
0.117464
0.117069
0.116702
0.116345
0.116012
0.115704
0.115405
0.115149
0.114886
0.114674
0.114449
0.114267
0.114073
0.113911
0.113741
0.113586
0.113436
0.113276
0.113137
0.11297
0.112812
0.112618
0.1124
0.112177
0.111998
0.112019
0.112256
0.112672
0.11334
0.114145
0.115199
0.116364
0.117745
0.119207
0.120816
0.122473
0.124208
0.125968
0.127748
0.129537
0.1313
0.133062
0.134756
0.136439
0.138013
0.139568
0.140978
0.142364
0.143591
0.144794
0.145849
0.146894
0.147821
0.148759
0.149619
0.150504
0.151361
0.152245
0.153144
0.154077
0.155029
0.156048
0.157037
0.158147
0.159118
0.16031
0.161148
0.162395
0.163013
0.164236
0.164741
0.164839
0.371236
0.363985
0.357005
0.350278
0.343796
0.337543
0.331512
0.325689
0.320069
0.314636
0.30939
0.304314
0.299409
0.29466
0.290067
0.285616
0.28131
0.277134
0.27309
0.269167
0.265364
0.261675
0.258094
0.254621
0.251243
0.24797
0.244781
0.241693
0.238678
0.235761
0.232909
0.230149
0.227449
0.224835
0.222276
0.219797
0.21737
0.215018
0.212712
0.210479
0.208286
0.206164
0.204077
0.202059
0.20007
0.198151
0.196253
0.194426
0.192614
0.190873
0.189143
0.187482
0.185828
0.184242
0.182663
0.181146
0.179636
0.178184
0.176741
0.17535
0.17397
0.172637
0.171315
0.170039
0.168772
0.16755
0.166334
0.165165
0.163999
0.162879
0.161761
0.160689
0.159618
0.158592
0.157565
0.156584
0.155597
0.154658
0.153709
0.152805
0.151892
0.151017
0.150137
0.149285
0.148435
0.1476
0.146777
0.145956
0.145154
0.144348
0.143563
0.142772
0.142001
0.141227
0.140467
0.139709
0.138958
0.138213
0.13747
0.136733
0.135998
0.135263
0.134536
0.133803
0.133081
0.132354
0.131637
0.130924
0.130218
0.129524
0.128839
0.12817
0.127519
0.126878
0.126271
0.125662
0.125098
0.124523
0.123995
0.123451
0.12295
0.122429
0.121947
0.121439
0.120969
0.120472
0.120006
0.11953
0.119069
0.118625
0.118184
0.117776
0.11737
0.117005
0.116638
0.11632
0.115992
0.115715
0.115422
0.115174
0.11491
0.114685
0.114448
0.114231
0.114016
0.113791
0.113598
0.11338
0.113186
0.112957
0.112704
0.11243
0.112196
0.112185
0.112391
0.11278
0.113424
0.114209
0.115247
0.116404
0.117786
0.119253
0.120881
0.12255
0.124308
0.126079
0.127875
0.12967
0.131432
0.133192
0.134862
0.136534
0.138068
0.139602
0.140975
0.142334
0.143546
0.144718
0.145797
0.146805
0.147795
0.148693
0.149642
0.150495
0.151436
0.15231
0.153257
0.154206
0.155155
0.15621
0.157139
0.158294
0.159179
0.160354
0.161202
0.162256
0.163072
0.164011
0.164575
0.164955
0.371236
0.363986
0.357007
0.350281
0.3438
0.337547
0.331518
0.325696
0.320076
0.314646
0.3094
0.304327
0.299422
0.294675
0.290084
0.285636
0.28133
0.277157
0.273115
0.269194
0.265393
0.261706
0.258127
0.254656
0.251281
0.248009
0.244823
0.241735
0.238725
0.235807
0.23296
0.230199
0.227504
0.224888
0.222335
0.219854
0.217432
0.215077
0.212778
0.210541
0.208356
0.206229
0.204149
0.202127
0.200145
0.198221
0.19633
0.194498
0.192693
0.190947
0.189223
0.187558
0.185911
0.184321
0.182746
0.181226
0.17972
0.178266
0.176826
0.175433
0.174056
0.172721
0.171402
0.170124
0.16886
0.167635
0.166423
0.165249
0.164088
0.162962
0.161849
0.16077
0.159702
0.158668
0.157642
0.156649
0.155662
0.154707
0.153756
0.152834
0.151915
0.15102
0.150129
0.149258
0.148393
0.147543
0.146703
0.145874
0.14506
0.144255
0.143468
0.14269
0.14193
0.14118
0.140447
0.139724
0.139015
0.138316
0.137625
0.136943
0.136265
0.135594
0.134921
0.134253
0.133581
0.132915
0.132244
0.13158
0.130915
0.130258
0.129609
0.128968
0.12834
0.127726
0.127123
0.126541
0.125967
0.125416
0.12487
0.124346
0.123824
0.12332
0.122817
0.12233
0.121839
0.12137
0.120889
0.12044
0.119973
0.119547
0.119105
0.118704
0.118298
0.117925
0.117559
0.117216
0.116889
0.116577
0.116279
0.115996
0.115715
0.115461
0.115191
0.114957
0.114698
0.114471
0.114226
0.114007
0.113763
0.113531
0.113255
0.112941
0.112622
0.112365
0.112428
0.112693
0.11325
0.113976
0.114971
0.116102
0.117472
0.118934
0.120571
0.122248
0.124023
0.125804
0.127612
0.129417
0.131184
0.132953
0.134623
0.136302
0.137838
0.139378
0.140764
0.142127
0.143371
0.144549
0.145673
0.146697
0.147732
0.148663
0.14964
0.150545
0.151487
0.152424
0.153351
0.154345
0.155276
0.156325
0.157269
0.158328
0.1593
0.16026
0.161294
0.162043
0.163075
0.163666
0.164533
0.165067
0.371236
0.363988
0.357009
0.350284
0.343803
0.337553
0.331523
0.325704
0.320085
0.314657
0.309411
0.304341
0.299437
0.294693
0.290102
0.285657
0.281353
0.277183
0.273142
0.269224
0.265425
0.26174
0.258164
0.254694
0.251323
0.248051
0.24487
0.241782
0.238777
0.235857
0.233016
0.230253
0.227565
0.224947
0.222399
0.219917
0.217501
0.215144
0.21285
0.210611
0.208431
0.206302
0.204228
0.202202
0.200227
0.198299
0.196415
0.194578
0.19278
0.19103
0.189312
0.187643
0.186001
0.184407
0.182838
0.181314
0.179813
0.178356
0.17692
0.175525
0.174151
0.172814
0.171499
0.170217
0.168958
0.167729
0.166521
0.165342
0.164184
0.163053
0.16194
0.160853
0.159782
0.158733
0.157699
0.156683
0.155679
0.154689
0.153708
0.152738
0.151774
0.150819
0.149867
0.148926
0.147988
0.147063
0.146142
0.145239
0.144345
0.143472
0.142612
0.141777
0.14096
0.140168
0.139397
0.138649
0.137922
0.137216
0.136525
0.135854
0.135188
0.13454
0.133889
0.133254
0.132611
0.131978
0.131342
0.130707
0.130078
0.129446
0.128828
0.12821
0.127605
0.127011
0.126421
0.125859
0.125287
0.124754
0.124206
0.123697
0.123177
0.122688
0.122195
0.12173
0.121258
0.120821
0.120369
0.119959
0.11953
0.119142
0.118741
0.118372
0.118003
0.117653
0.117313
0.116987
0.116669
0.116371
0.116069
0.115796
0.115509
0.115248
0.114982
0.114722
0.114476
0.114215
0.11398
0.113728
0.113482
0.113225
0.112928
0.11263
0.112294
0.112165
0.112207
0.112466
0.113016
0.113738
0.114725
0.115842
0.117196
0.118635
0.120254
0.121908
0.123669
0.125434
0.127232
0.129027
0.13079
0.132556
0.134234
0.13592
0.137478
0.139035
0.140456
0.141852
0.143132
0.144366
0.145514
0.146619
0.147648
0.148681
0.149613
0.150629
0.1515
0.15253
0.153389
0.154437
0.155324
0.156379
0.157307
0.15833
0.159305
0.160212
0.16124
0.161976
0.162913
0.163669
0.164165
0.165168
0.371236
0.36399
0.357011
0.350288
0.343807
0.337559
0.33153
0.325713
0.320094
0.314668
0.309424
0.304356
0.299454
0.294712
0.290123
0.285681
0.281379
0.277211
0.273172
0.269257
0.265461
0.261778
0.258205
0.254736
0.25137
0.248098
0.244922
0.241833
0.238834
0.235914
0.233078
0.230315
0.227631
0.225013
0.22247
0.219987
0.217575
0.215218
0.212928
0.210689
0.208512
0.206384
0.204312
0.202287
0.200314
0.198386
0.196505
0.194668
0.192874
0.191122
0.189408
0.187737
0.186099
0.184504
0.182936
0.181414
0.179913
0.178458
0.177021
0.175628
0.174253
0.172919
0.171603
0.170323
0.169063
0.167835
0.166628
0.165447
0.164289
0.163154
0.16204
0.160945
0.159868
0.158806
0.15776
0.156723
0.155696
0.154676
0.153661
0.152649
0.151638
0.150631
0.149621
0.148621
0.147616
0.14663
0.145641
0.144678
0.143721
0.142795
0.141886
0.141008
0.140158
0.139336
0.13855
0.137786
0.137061
0.136352
0.135679
0.135015
0.134379
0.133749
0.133137
0.132527
0.131926
0.131327
0.13073
0.130136
0.129539
0.128951
0.128357
0.127779
0.127188
0.126627
0.126044
0.125505
0.124932
0.124415
0.123861
0.123364
0.122834
0.122358
0.121855
0.121402
0.120926
0.1205
0.120051
0.119651
0.119229
0.118853
0.118457
0.118103
0.117733
0.117401
0.117055
0.116743
0.11642
0.116125
0.115827
0.11554
0.115267
0.114985
0.114729
0.114458
0.114206
0.113955
0.113701
0.113471
0.113218
0.112982
0.112713
0.112428
0.112149
0.111927
0.11197
0.112196
0.112693
0.113352
0.114272
0.115324
0.116623
0.118015
0.119602
0.121233
0.122988
0.124756
0.126573
0.128392
0.130189
0.131988
0.133709
0.13543
0.137037
0.138633
0.140103
0.14155
0.142874
0.144173
0.145353
0.146534
0.14758
0.148683
0.149625
0.150684
0.151569
0.152602
0.153486
0.154498
0.155419
0.156419
0.157374
0.15835
0.159329
0.160225
0.161221
0.161987
0.162886
0.163667
0.16421
0.165118
0.371236
0.363993
0.357013
0.350293
0.343812
0.337566
0.331537
0.325723
0.320105
0.314682
0.309439
0.304373
0.299473
0.294734
0.290147
0.285707
0.281408
0.277242
0.273207
0.269293
0.265501
0.261819
0.258251
0.254783
0.251421
0.24815
0.24498
0.241891
0.238897
0.235977
0.233146
0.230383
0.227703
0.225086
0.222546
0.220065
0.217655
0.215301
0.213011
0.210777
0.208599
0.206475
0.204403
0.202382
0.200409
0.198484
0.196603
0.194769
0.192974
0.191225
0.189511
0.187843
0.186203
0.184612
0.183043
0.181524
0.180021
0.17857
0.17713
0.175743
0.174364
0.173034
0.171716
0.170439
0.169178
0.16795
0.166744
0.165563
0.164407
0.16327
0.162158
0.161059
0.159985
0.158919
0.157873
0.156831
0.155802
0.154777
0.153756
0.15274
0.15172
0.15071
0.149692
0.148691
0.147682
0.146699
0.145714
0.144761
0.143818
0.14291
0.142026
0.141175
0.140359
0.139574
0.138829
0.138113
0.137432