/*--------------------------------*- C++ -*----------------------------------*\
  =========                 |
  \\      /  F ield         | OpenFOAM: The Open Source CFD Toolbox
   \\    /   O peration     | Website:  https://openfoam.org
    \\  /    A nd           | Version:  8
     \\/     M anipulation  |
\*---------------------------------------------------------------------------*/
FoamFile
{
    version     2.0;
    format      ascii;
    class       volScalarField::Internal;
    location    "101";
    object      kEpsilon:G;
}
// * * * * * * * * * * * * * * * * * * * * * * * * * * * * * * * * * * * * * //

dimensions      [0 2 -3 0 0 0 0];

value           nonuniform List<scalar> 
65000
(
6.45226e-05
0.000402528
0.00113149
0.00222508
0.00364391
0.00538714
0.00745986
0.00984892
0.0125327
0.0154935
0.0187181
0.0221889
0.0258862
0.0297923
0.0338906
0.0381628
0.0425859
0.0471429
0.0518159
0.0565947
0.0614576
0.0663929
0.0713761
0.0764031
0.0814528
0.0865286
0.0916065
0.0966923
0.101758
0.106814
0.111833
0.116833
0.121785
0.126716
0.131591
0.136441
0.141229
0.145991
0.150687
0.155354
0.159958
0.164534
0.169051
0.173544
0.177985
0.182401
0.186775
0.191126
0.195443
0.199739
0.204007
0.208261
0.212493
0.21672
0.220928
0.225142
0.229343
0.233557
0.237765
0.24199
0.246222
0.250468
0.25474
0.259017
0.263346
0.267663
0.272062
0.276429
0.280905
0.285326
0.289881
0.294354
0.298975
0.303491
0.308156
0.3127
0.317383
0.321941
0.326621
0.331195
0.335869
0.340488
0.345184
0.349912
0.354702
0.359638
0.364629
0.369897
0.375225
0.380956
0.386761
0.393068
0.399469
0.406428
0.413499
0.421128
0.428884
0.437135
0.445529
0.454298
0.463223
0.472369
0.48168
0.491055
0.500593
0.51008
0.519696
0.529235
0.538821
0.548417
0.557934
0.567638
0.577129
0.587007
0.596598
0.606703
0.616569
0.62694
0.637247
0.647928
0.658779
0.669839
0.681256
0.692775
0.70473
0.716778
0.729242
0.741881
0.754866
0.768169
0.781763
0.795805
0.810167
0.825041
0.840328
0.856151
0.872452
0.889293
0.906651
0.924461
0.942899
0.961541
0.981012
1.00042
1.02072
1.041
1.0619
1.08313
1.10456
1.12664
1.14864
1.17134
1.19361
1.21675
1.23918
1.26421
1.28959
1.31882
1.35287
1.39242
1.43851
1.48923
1.54851
1.60884
1.67342
1.73746
1.80519
1.87056
1.93826
2.00242
2.06742
2.12847
2.18898
2.24517
2.29952
2.34858
2.39406
2.43329
2.46618
2.49284
2.51029
2.52137
2.5223
2.51527
2.4978
2.47254
2.43205
2.38912
2.32363
2.2579
2.17285
2.07802
1.97498
1.85944
1.73517
1.61453
1.49361
1.35876
1.22093
1.0885
0.000162929
0.000501075
0.00123039
0.00232488
0.00374538
0.00549103
0.00756649
0.00995874
0.0126457
0.0156102
0.0188382
0.022313
0.0260137
0.0299239
0.0340253
0.0383013
0.042727
0.0472875
0.0519624
0.056744
0.0616083
0.0665457
0.0715296
0.0765578
0.0816078
0.0866839
0.0917614
0.0968468
0.101911
0.106967
0.111984
0.116983
0.121933
0.126862
0.131734
0.136582
0.141369
0.146127
0.150821
0.155485
0.160087
0.164658
0.169176
0.173661
0.178104
0.182513
0.18689
0.191232
0.195552
0.199838
0.204112
0.208354
0.212593
0.216807
0.221024
0.225224
0.229433
0.233634
0.237851
0.242063
0.246303
0.250536
0.254817
0.259082
0.263419
0.267725
0.272133
0.276488
0.280973
0.285381
0.289943
0.2944
0.299027
0.303521
0.308191
0.312704
0.31739
0.321909
0.326594
0.331122
0.335809
0.340378
0.345109
0.349788
0.354643
0.359541
0.364638
0.369891
0.375366
0.38112
0.387112
0.393494
0.400119
0.407216
0.414547
0.422384
0.430441
0.438974
0.447717
0.45685
0.466184
0.47579
0.485575
0.495525
0.505596
0.515786
0.525987
0.536346
0.546568
0.557055
0.567265
0.57786
0.5881
0.598803
0.609172
0.620002
0.630621
0.641618
0.652589
0.66382
0.675209
0.686762
0.698588
0.710558
0.722808
0.735266
0.747936
0.760928
0.774066
0.787627
0.801347
0.815531
0.829988
0.844894
0.860224
0.875992
0.892274
0.909022
0.926293
0.944033
0.962298
0.980946
1.00021
1.01969
1.03991
1.06022
1.08128
1.10245
1.12424
1.14625
1.16867
1.19134
1.21413
1.23711
1.26004
1.28346
1.30821
1.33629
1.36858
1.40682
1.45131
1.50096
1.55934
1.61928
1.68323
1.74812
1.81576
1.88298
1.95082
2.01711
2.08199
2.14482
2.20464
2.2616
2.31462
2.36266
2.40641
2.44236
2.47332
2.49514
2.51025
2.51692
2.51483
2.50547
2.48498
2.45933
2.41753
2.37447
2.31099
2.24341
2.16442
2.06542
1.97016
1.85496
1.73252
1.60491
1.4892
1.36079
1.21714
1.085
0.000360425
0.000698721
0.00142857
0.00252467
0.00394839
0.00569877
0.00777965
0.0101779
0.0128713
0.0158428
0.019078
0.0225605
0.0262683
0.030186
0.0342943
0.0385772
0.0430089
0.0475754
0.0522553
0.0570416
0.0619097
0.0668503
0.0718368
0.0768665
0.0819177
0.0869939
0.0920715
0.0971556
0.102219
0.107272
0.112287
0.117282
0.122229
0.127153
0.132022
0.136864
0.141647
0.146398
0.15109
0.155745
0.160345
0.164907
0.169423
0.1739
0.178339
0.18274
0.187113
0.191449
0.195763
0.200046
0.204311
0.208553
0.212781
0.216998
0.221201
0.225407
0.2296
0.23381
0.238007
0.242232
0.246451
0.250699
0.254958
0.259239
0.263555
0.267876
0.272265
0.276635
0.281105
0.285528
0.290082
0.294557
0.299183
0.303705
0.308385
0.312943
0.31766
0.322248
0.326992
0.33162
0.336409
0.34111
0.345994
0.350834
0.355897
0.360976
0.366327
0.371764
0.377526
0.383447
0.389736
0.396249
0.403152
0.410335
0.417899
0.425777
0.433999
0.442543
0.451376
0.460511
0.469862
0.479489
0.489238
0.499262
0.509274
0.519618
0.529771
0.540365
0.550583
0.561362
0.571627
0.582541
0.592876
0.6039
0.614345
0.625487
0.636088
0.647385
0.658196
0.669704
0.680792
0.692578
0.704015
0.716146
0.727994
0.740538
0.752851
0.765872
0.778714
0.792276
0.80574
0.819911
0.834121
0.848969
0.86404
0.879633
0.895638
0.912035
0.928989
0.946215
0.964098
0.982157
1.00096
1.01993
1.03957
1.05959
1.07999
1.10106
1.12227
1.14426
1.16638
1.18894
1.21182
1.23466
1.25772
1.28097
1.30529
1.33295
1.36454
1.40182
1.44556
1.49445
1.553
1.61279
1.67784
1.74308
1.812
1.88089
1.95058
2.02005
2.08693
2.15344
2.21442
2.27417
2.32677
2.37586
2.41764
2.45284
2.48109
2.50076
2.51346
2.5171
2.51392
2.50112
2.48154
2.45249
2.41362
2.36808
2.30823
2.24021
2.16415
2.06652
1.97353
1.86176
1.73705
1.62145
1.50368
1.37587
1.22844
1.09773
0.000658377
0.000996847
0.00172748
0.00282592
0.00425448
0.00601182
0.00810094
0.0105082
0.0132113
0.0161933
0.0194395
0.022933
0.0266522
0.0305807
0.0346998
0.0389927
0.043434
0.0480089
0.0526969
0.0574899
0.062364
0.0673091
0.0722994
0.0773315
0.0823844
0.0874609
0.0925381
0.0976204
0.102682
0.107731
0.112742
0.117732
0.122674
0.127591
0.132455
0.137289
0.142066
0.146808
0.151492
0.156139
0.160731
0.165286
0.16979
0.174262
0.178689
0.183087
0.187445
0.19178
0.196079
0.200361
0.204611
0.208853
0.213066
0.217283
0.221473
0.225678
0.229861
0.234068
0.238257
0.242478
0.246691
0.250935
0.255189
0.259466
0.263776
0.268097
0.272478
0.276852
0.281312
0.285749
0.29029
0.294796
0.29941
0.303986
0.308663
0.313308
0.31804
0.322757
0.327549
0.332354
0.337233
0.342161
0.34718
0.352289
0.357525
0.362892
0.368438
0.374144
0.380093
0.386215
0.392644
0.399244
0.4062
0.413315
0.420809
0.428446
0.43645
0.444587
0.453048
0.461639
0.47049
0.479474
0.488642
0.497952
0.507362
0.516932
0.526526
0.5363
0.546041
0.555977
0.56585
0.575922
0.585922
0.596133
0.606257
0.616635
0.626887
0.637473
0.647882
0.658717
0.669355
0.680477
0.691448
0.702903
0.714314
0.726171
0.738107
0.750458
0.762988
0.775927
0.789134
0.802734
0.816701
0.831017
0.845793
0.860879
0.876467
0.892388
0.908757
0.925571
0.94273
0.960415
0.978478
0.996967
1.016
1.03535
1.05528
1.07567
1.09642
1.11781
1.1397
1.16153
1.18426
1.20644
1.22921
1.25204
1.27742
1.30593
1.34055
1.37898
1.42501
1.47417
1.53331
1.59337
1.6604
1.72698
1.79785
1.86876
1.94206
2.01477
2.08616
2.15565
2.22106
2.28216
2.33862
2.38721
2.43208
2.46587
2.49628
2.51455
2.52858
2.53071
2.52847
2.51378
2.4947
2.46456
2.42473
2.38059
2.31827
2.2539
2.17524
2.08141
1.98877
1.87323
1.76591
1.64983
1.53273
1.38474
1.24621
1.11754
0.00105891
0.00139763
0.00212934
0.00323091
0.00466596
0.00643268
0.00853281
0.010952
0.0136682
0.0166642
0.0199252
0.0234336
0.027168
0.0311111
0.0352445
0.0395508
0.0440049
0.0485912
0.0532897
0.0580914
0.0629734
0.0679244
0.0729195
0.0779548
0.0830097
0.0880865
0.0931631
0.0982428
0.103301
0.108345
0.113352
0.118334
0.12327
0.128178
0.133034
0.137858
0.142626
0.147357
0.152031
0.156668
0.161247
0.165793
0.170284
0.174747
0.179159
0.18355
0.187893
0.192221
0.196505
0.200781
0.205017
0.209253
0.213453
0.217663
0.221843
0.22604
0.230214
0.234412
0.238596
0.242807
0.247015
0.25125
0.255499
0.259769
0.264073
0.268389
0.272761
0.277135
0.281583
0.286027
0.290555
0.295074
0.299683
0.304282
0.308968
0.31365
0.318416
0.323192
0.328052
0.332943
0.337929
0.342975
0.348138
0.353392
0.358798
0.36432
0.370038
0.375881
0.381968
0.38817
0.39466
0.401238
0.40814
0.41509
0.422382
0.429687
0.437327
0.44496
0.452906
0.460831
0.469037
0.477212
0.485645
0.494034
0.502677
0.511251
0.520098
0.528844
0.537896
0.546819
0.556074
0.565199
0.574647
0.58402
0.593646
0.603315
0.613115
0.623119
0.633126
0.643484
0.653772
0.664498
0.675173
0.6863
0.697466
0.709075
0.720797
0.73302
0.745345
0.758311
0.771326
0.785084
0.79892
0.813458
0.828227
0.843514
0.859288
0.875327
0.892111
0.909001
0.92672
0.944587
0.963199
0.982113
1.00159
1.02162
1.042
1.06309
1.08446
1.10646
1.12876
1.1513
1.17368
1.19636
1.21897
1.24454
1.27251
1.30412
1.33943
1.37898
1.42309
1.47121
1.52938
1.59016
1.65687
1.72313
1.79384
1.8641
1.93899
2.01229
2.0872
2.15827
2.22821
2.29122
2.35167
2.40227
2.44948
2.48578
2.51686
2.53821
2.55203
2.55718
2.55416
2.54228
2.52095
2.49417
2.45041
2.40966
2.34396
2.28151
2.20113
2.10915
2.01361
1.90494
1.78193
1.65596
1.54279
1.40579
1.26539
1.12832
0.00156489
0.00190391
0.00263696
0.00374246
0.00518567
0.00696416
0.00907814
0.0115125
0.0142452
0.0172588
0.0205383
0.0240656
0.0278186
0.0317801
0.0359314
0.0402543
0.0447243
0.0493246
0.0540362
0.0588487
0.0637405
0.0686985
0.0737002
0.0787384
0.0837968
0.0888726
0.0939497
0.0990245
0.104081
0.109116
0.114119
0.11909
0.124021
0.128914
0.133764
0.138571
0.143331
0.148046
0.15271
0.15733
0.161899
0.166427
0.170907
0.175354
0.179755
0.18413
0.188461
0.192773
0.197047
0.201306
0.205534
0.209752
0.213946
0.218138
0.222313
0.226492
0.230662
0.234843
0.239022
0.243218
0.247422
0.251644
0.255886
0.260147
0.26444
0.268753
0.273108
0.277485
0.281912
0.286363
0.290866
0.295399
0.29998
0.304601
0.309264
0.313978
0.318732
0.323553
0.328417
0.33337
0.338381
0.343505
0.348713
0.354057
0.359517
0.365129
0.370894
0.376812
0.382916
0.389156
0.395607
0.402165
0.408946
0.415798
0.42287
0.429981
0.4373
0.44463
0.452156
0.459668
0.467375
0.475045
0.482921
0.490738
0.498783
0.506757
0.514981
0.523139
0.531564
0.539944
0.548596
0.55725
0.566153
0.575138
0.584315
0.593687
0.60316
0.612969
0.622773
0.633052
0.643244
0.654019
0.664678
0.675976
0.687183
0.699048
0.71088
0.723375
0.735919
0.74909
0.762452
0.776317
0.79059
0.805185
0.820393
0.835797
0.851917
0.868229
0.885235
0.902565
0.920417
0.93885
0.957578
0.977063
0.996831
1.01732
1.03819
1.05979
1.0816
1.10451
1.12703
1.1506
1.17338
1.19669
1.21892
1.24455
1.27193
1.30341
1.33871
1.37813
1.42184
1.47064
1.52571
1.58505
1.64996
1.71568
1.78567
1.85615
1.93154
2.00644
2.08386
2.15821
2.23213
2.29955
2.36415
2.41949
2.46996
2.51066
2.54385
2.56903
2.58383
2.59259
2.58891
2.58102
2.55717
2.5341
2.48772
2.44798
2.38236
2.31741
2.23842
2.14623
2.04458
1.94328
1.80908
1.6964
1.57027
1.4267
1.29648
1.15437
0.00218001
0.00251936
0.00325399
0.00436421
0.00581728
0.00761011
0.00974079
0.0121935
0.0149459
0.017981
0.0212827
0.0248327
0.0286082
0.0325919
0.0367644
0.0411077
0.0455964
0.0502137
0.0549408
0.0597663
0.0646696
0.0696361
0.0746451
0.0796874
0.0847487
0.0898243
0.0949002
0.099971
0.105022
0.11005
0.115045
0.120005
0.124925
0.129806
0.134642
0.139436
0.144181
0.14888
0.153528
0.158132
0.162684
0.167196
0.17166
0.176089
0.180474
0.184831
0.189148
0.193442
0.197702
0.201943
0.206158
0.210359
0.214541
0.218715
0.222879
0.227042
0.231201
0.235366
0.239536
0.243717
0.24791
0.25212
0.256352
0.260602
0.264884
0.269189
0.273531
0.277904
0.282313
0.286764
0.291244
0.295781
0.300337
0.304966
0.309601
0.314329
0.319055
0.323896
0.328733
0.333711
0.338693
0.343846
0.349016
0.354389
0.359795
0.365426
0.371113
0.377027
0.383021
0.389222
0.395526
0.402
0.408591
0.415311
0.42215
0.429081
0.436126
0.443234
0.450451
0.457711
0.465084
0.472485
0.480012
0.487565
0.495257
0.502997
0.510876
0.518853
0.526955
0.535223
0.543597
0.552213
0.560912
0.569934
0.579007
0.588501
0.597985
0.608013
0.617948
0.628552
0.638987
0.650186
0.661183
0.672986
0.684612
0.697033
0.70935
0.722422
0.735492
0.749246
0.763128
0.777578
0.792333
0.807499
0.823175
0.8391
0.855737
0.872479
0.890111
0.90775
0.926366
0.945001
0.964586
0.984263
1.00479
1.02567
1.04698
1.06925
1.09127
1.11479
1.13779
1.16208
1.18561
1.20978
1.23221
1.25497
1.28078
1.31028
1.3438
1.38123
1.42241
1.46879
1.52006
1.57695
1.64296
1.71071
1.78119
1.85445
1.92999
2.00814
2.08631
2.16477
2.23999
2.31234
2.37821
2.43862
2.48998
2.53508
2.56891
2.59746
2.61272
2.62438
2.62075
2.61579
2.59191
2.57101
2.52533
2.48675
2.42109
2.35898
2.27634
2.18964
2.08301
1.98256
1.848
1.7276
1.60681
1.46109
1.31838
1.17706
0.00290882
0.00324854
0.00398496
0.00510072
0.00656538
0.00837508
0.0105254
0.0129998
0.0157754
0.0188357
0.0221635
0.0257403
0.029542
0.0335519
0.037749
0.0421162
0.0466263
0.051264
0.0560081
0.0608495
0.0657649
0.0707424
0.075758
0.0808064
0.0858689
0.0909461
0.0960178
0.101086
0.106128
0.111151
0.116131
0.121083
0.125986
0.130857
0.135673
0.140454
0.145177
0.149863
0.154487
0.159076
0.163605
0.168102
0.172542
0.176955
0.181317
0.185658
0.189953
0.194231
0.198469
0.202695
0.206889
0.211075
0.215237
0.219398
0.223542
0.227692
0.231833
0.235985
0.240138
0.244306
0.248486
0.252682
0.256902
0.261138
0.265411
0.269702
0.274036
0.278397
0.282796
0.28724
0.291705
0.296243
0.300774
0.30541
0.31001
0.314749
0.319426
0.324274
0.329042
0.334014
0.338898
0.344018
0.349051
0.354348
0.359567
0.365067
0.370508
0.376228
0.381916
0.387858
0.393799
0.399956
0.406139
0.412501
0.418906
0.425462
0.432063
0.438807
0.445594
0.452531
0.459511
0.466654
0.473851
0.481233
0.488684
0.496355
0.5041
0.512119
0.520199
0.528623
0.537086
0.545959
0.554855
0.564219
0.573589
0.583491
0.593369
0.603854
0.614269
0.625367
0.636355
0.648059
0.659668
0.671955
0.684232
0.697088
0.71007
0.723507
0.737228
0.751274
0.765775
0.780457
0.795772
0.81114
0.827283
0.843439
0.860435
0.877486
0.895408
0.91344
0.932356
0.95145
0.971379
0.991587
1.01245
1.03387
1.05553
1.07819
1.10065
1.12436
1.14789
1.17248
1.19657
1.22121
1.24474
1.26755
1.29125
1.3208
1.35408
1.39171
1.43377
1.48181
1.53325
1.59472
1.65675
1.72641
1.79574
1.87054
1.94513
2.02517
2.10279
2.18333
2.25783
2.33267
2.39753
2.46068
2.51131
2.55844
2.59284
2.62184
2.63953
2.65014
2.65057
2.64385
2.62501
2.60269
2.56178
2.52336
2.46058
2.40054
2.31866
2.2337
2.12937
2.02287
1.90151
1.75843
1.64747
1.50624
1.35839
1.2113
0.00375683
0.00409694
0.00483535
0.00595744
0.00743545
0.00926475
0.0114378
0.0139371
0.0167396
0.0198291
0.0231867
0.0267945
0.0306262
0.0346662
0.0388914
0.0432859
0.0478203
0.0524811
0.0572444
0.0621038
0.0670326
0.0720224
0.0770451
0.0821001
0.0871635
0.092242
0.0973088
0.102374
0.107405
0.11242
0.117386
0.122327
0.127211
0.132068
0.136862
0.141627
0.146326
0.150995
0.155595
0.160164
0.164668
0.169145
0.173561
0.177953
0.182292
0.186611
0.190883
0.19514
0.199356
0.203563
0.207733
0.211903
0.216041
0.220188
0.224308
0.228445
0.232563
0.236704
0.240835
0.244992
0.249152
0.253336
0.257541
0.261763
0.266024
0.270301
0.274626
0.278976
0.283366
0.287809
0.292263
0.296812
0.30133
0.305992
0.310576
0.315353
0.320007
0.324899
0.329632
0.334643
0.339469
0.344606
0.349543
0.354817
0.35989
0.365311
0.37054
0.376111
0.381513
0.387232
0.39281
0.398672
0.404414
0.410411
0.416291
0.422436
0.428445
0.43476
0.440908
0.447424
0.453756
0.460506
0.467098
0.474122
0.481057
0.488405
0.495752
0.503487
0.511296
0.519491
0.52779
0.536518
0.545329
0.554648
0.56399
0.573944
0.583836
0.594443
0.604905
0.616143
0.627208
0.639008
0.650714
0.662998
0.675358
0.688097
0.701094
0.714305
0.727926
0.741646
0.755913
0.770169
0.785133
0.799989
0.815676
0.831299
0.847741
0.864332
0.881681
0.899355
0.917789
0.936646
0.956209
0.97631
0.996901
1.01829
1.0397
1.06218
1.08443
1.10796
1.13086
1.15506
1.17748
1.20224
1.22534
1.25282
1.28237
1.31726
1.35411
1.39689
1.44339
1.49717
1.55448
1.61793
1.68226
1.75196
1.82116
1.89708
1.97163
2.05164
2.1281
2.20806
2.28098
2.35531
2.41894
2.48176
2.53197
2.57878
2.61355
2.64254
2.6608
2.67268
2.67324
2.66981
2.65093
2.63324
2.59369
2.55884
2.50034
2.44102
2.36552
2.27789
2.18152
2.06834
1.9506
1.81125
1.69193
1.54757
1.40007
1.24352
0.00473064
0.0050711
0.00581171
0.00694085
0.00843414
0.0102856
0.0124847
0.0150123
0.0178455
0.0209678
0.0243598
0.0280021
0.0318684
0.0359414
0.0401993
0.0446233
0.0491864
0.0538711
0.058658
0.0635347
0.0684811
0.0734809
0.0785148
0.0835726
0.0886411
0.0937156
0.0987814
0.103836
0.108861
0.113861
0.118815
0.123738
0.128606
0.133441
0.138216
0.142958
0.147635
0.152279
0.156856
0.161399
0.165879
0.170329
0.17472
0.179087
0.1834
0.187695
0.191941
0.196176
0.200365
0.204552
0.208695
0.212847
0.216958
0.22109
0.225182
0.229307
0.233397
0.237528
0.241632
0.24578
0.249914
0.254091
0.25827
0.262487
0.266725
0.270999
0.275302
0.279654
0.284027
0.288477
0.292926
0.29749
0.30202
0.306709
0.311327
0.316148
0.32086
0.325813
0.330627
0.335713
0.340631
0.345847
0.350873
0.35621
0.361344
0.366791
0.37203
0.377572
0.382904
0.388525
0.39393
0.399617
0.405073
0.410825
0.416317
0.422144
0.427671
0.433596
0.439195
0.445252
0.451001
0.457229
0.463224
0.469665
0.476001
0.482713
0.489466
0.496531
0.503753
0.511264
0.518995
0.527039
0.535321
0.543958
0.552836
0.562101
0.571599
0.581504
0.591618
0.602143
0.612859
0.623942
0.635257
0.646833
0.658752
0.670791
0.683321
0.695827
0.708989
0.721999
0.735802
0.749415
0.763854
0.778235
0.793301
0.808654
0.824395
0.840861
0.857489
0.875057
0.892812
0.911484
0.930447
0.950145
0.970378
0.990913
1.0121
1.03349
1.05514
1.07725
1.0985
1.12036
1.14111
1.16594
1.1926
1.22398
1.259
1.29773
1.34138
1.38989
1.44381
1.50428
1.56625
1.63183
1.69951
1.77148
1.84373
1.92061
1.99545
2.07504
2.14975
2.22853
2.29923
2.37224
2.43453
2.49629
2.54651
2.59286
2.62845
2.65817
2.67719
2.69168
2.69274
2.69345
2.67626
2.66188
2.62794
2.59298
2.54377
2.48277
2.41434
2.32805
2.23234
2.12274
1.99915
1.87137
1.75492
1.61402
1.45848
1.29956
0.00583801
0.00617873
0.00692176
0.00805861
0.00956915
0.0114457
0.0136741
0.0162335
0.0191014
0.0222603
0.0256911
0.0293718
0.0332769
0.0373867
0.0416809
0.0461377
0.0507323
0.0554436
0.0602558
0.0651519
0.0701163
0.0751279
0.0801723
0.0852341
0.0903055
0.095377
0.100439
0.105484
0.110499
0.115484
0.120423
0.125325
0.130174
0.134986
0.139738
0.144454
0.149106
0.153722
0.158272
0.162787
0.167239
0.171661
0.176024
0.180362
0.184647
0.188915
0.193133
0.197341
0.201504
0.205664
0.209784
0.213908
0.217999
0.222102
0.226177
0.230275
0.23435
0.238454
0.242544
0.246668
0.250786
0.254944
0.259104
0.263309
0.267522
0.271792
0.276068
0.280421
0.284772
0.289225
0.293662
0.298229
0.302768
0.307459
0.312114
0.316934
0.321714
0.326666
0.331575
0.336654
0.341689
0.346882
0.352035
0.357322
0.362574
0.36793
0.373258
0.378657
0.384028
0.389448
0.394832
0.400256
0.405627
0.411055
0.416402
0.421851
0.427185
0.432677
0.438034
0.443596
0.449036
0.454696
0.460299
0.4661
0.47194
0.47795
0.484091
0.490396
0.496897
0.503595
0.510524
0.517696
0.525135
0.532839
0.540858
0.549131
0.557757
0.566622
0.575827
0.585278
0.59502
0.60502
0.61529
0.625783
0.636613
0.647571
0.659016
0.670473
0.682586
0.694641
0.707463
0.720253
0.73381
0.747504
0.76181
0.776557
0.791661
0.8075
0.823557
0.840398
0.857565
0.875325
0.893601
0.912238
0.931452
0.950947
0.970708
0.990942
1.01061
1.03093
1.05007
1.07031
1.09298
1.11896
1.14923
1.18449
1.22489
1.26925
1.31994
1.3762
1.43913
1.50127
1.56728
1.63476
1.70539
1.77836
1.85207
1.92908
2.00431
2.08324
2.15794
2.23558
2.30645
2.37834
2.44127
2.50252
2.55392
2.60061
2.63815
2.6688
2.69087
2.70666
2.71189
2.7142
2.70236
2.68941
2.66183
2.62857
2.58451
2.52763
2.46042
2.38022
2.28204
2.1796
2.04969
1.92748
1.80546
1.65306
1.50451
1.35028
0.00708803
0.00742894
0.0081745
0.00931978
0.0108495
0.012754
0.0150154
0.0176102
0.0205168
0.0237165
0.0271903
0.0309137
0.0348616
0.0390122
0.043346
0.047839
0.0524675
0.0572085
0.0620468
0.0669651
0.0719471
0.0769727
0.0820254
0.0870935
0.0921643
0.0972348
0.102288
0.107326
0.112325
0.117296
0.122213
0.127098
0.13192
0.13671
0.141432
0.146124
0.150743
0.155333
0.159848
0.164338
0.168752
0.173149
0.177473
0.181789
0.186034
0.190282
0.194458
0.198649
0.202769
0.206916
0.210992
0.215106
0.219153
0.223249
0.227282
0.231372
0.235407
0.239505
0.243557
0.247676
0.251757
0.255912
0.260034
0.264241
0.268414
0.272689
0.276925
0.281285
0.285598
0.290057
0.294463
0.299032
0.303548
0.308239
0.312878
0.317701
0.322471
0.32743
0.332334
0.337426
0.342464
0.34767
0.35284
0.358133
0.363427
0.368782
0.374185
0.379583
0.385071
0.390503
0.39605
0.401516
0.407096
0.412605
0.418201
0.423761
0.429377
0.434994
0.440649
0.446321
0.452053
0.457783
0.463631
0.469442
0.475444
0.48139
0.487579
0.493741
0.500171
0.506635
0.513389
0.520229
0.527414
0.534681
0.542387
0.550124
0.558388
0.566633
0.575428
0.584197
0.593464
0.602742
0.612432
0.62219
0.632316
0.642548
0.653185
0.663938
0.675194
0.686577
0.698568
0.710716
0.723512
0.73657
0.750197
0.764277
0.778724
0.793855
0.809118
0.825216
0.841309
0.85829
0.875175
0.892947
0.910603
0.928889
0.947453
0.965955
0.984807
1.00303
1.02167
1.04109
1.06416
1.09152
1.12444
1.16105
1.20529
1.25251
1.30782
1.36548
1.43286
1.49929
1.56989
1.63949
1.71231
1.78531
1.85978
1.93545
2.01061
2.08761
2.16183
2.23774
2.30798
2.37908
2.4415
2.50325
2.55464
2.60315
2.64165
2.67509
2.6996
2.71849
2.72795
2.73303
2.72682
2.71698
2.69376
2.66697
2.6221
2.57641
2.50416
2.43432
2.33315
2.23367
2.10439
1.97637
1.82118
1.6932
1.53332
1.37303
0.00849128
0.00883233
0.00958048
0.0107348
0.0122858
0.0142214
0.0165193
0.0191534
0.0221027
0.0253477
0.0288688
0.0326392
0.036634
0.0408292
0.0452062
0.0497386
0.0544036
0.0591764
0.0640428
0.0689842
0.0739848
0.0790246
0.0840858
0.0891592
0.0942287
0.0992967
0.10434
0.109368
0.114349
0.119305
0.124197
0.129061
0.133853
0.138619
0.143308
0.147973
0.152556
0.157117
0.161594
0.166054
0.17043
0.174798
0.179082
0.183371
0.187574
0.191797
0.195931
0.200101
0.204176
0.208307
0.212337
0.21644
0.220438
0.224527
0.228511
0.232598
0.236584
0.240681
0.244685
0.248805
0.25284
0.256998
0.261074
0.265285
0.269415
0.273695
0.277889
0.282254
0.286528
0.290992
0.295361
0.299938
0.304418
0.309122
0.313726
0.31857
0.323306
0.328293
0.333166
0.338294
0.343316
0.34857
0.353756
0.359116
0.364473
0.369921
0.375452
0.380983
0.386681
0.392306
0.39816
0.403897
0.409897
0.415767
0.421905
0.427916
0.434187
0.440328
0.446733
0.452982
0.459525
0.465861
0.472547
0.478968
0.4858
0.492335
0.499318
0.506028
0.513191
0.520143
0.527559
0.534801
0.542573
0.550132
0.558352
0.566256
0.57495
0.583241
0.592364
0.601075
0.610558
0.619689
0.629477
0.638999
0.649092
0.658994
0.66945
0.679849
0.690737
0.701839
0.713258
0.725222
0.73729
0.750188
0.763053
0.776855
0.79062
0.805271
0.819957
0.835389
0.850999
0.86726
0.883753
0.900676
0.918064
0.93546
0.95405
0.972059
0.991249
1.0093
1.02773
1.04638
1.06963
1.09628
1.12817
1.16425
1.20613
1.25255
1.30554
1.36276
1.42995
1.49695
1.56872
1.63836
1.71164
1.78337
1.8581
1.93208
2.00757
2.08309
2.15758
2.23256
2.30311
2.37391
2.4372
2.49942
2.55277
2.60263
2.6444
2.68007
2.70942
2.7308
2.74708
2.75424
2.75605
2.74872
2.73205
2.70985
2.66815
2.62826
2.55705
2.49112
2.39126
2.2909
2.16501
2.03302
1.87863
1.73997
1.58597
1.42591
0.0100601
0.0104013
0.0111519
0.0123161
0.0138903
0.0158604
0.0181985
0.0208761
0.0238721
0.027167
0.0307396
0.0345619
0.0386072
0.0428514
0.0472744
0.0518499
0.0565534
0.0613606
0.066256
0.071222
0.0762415
0.0812953
0.0863652
0.0914418
0.0965108
0.101572
0.106606
0.111618
0.116584
0.121515
0.126387
0.13122
0.135988
0.140718
0.14538
0.150004
0.154559
0.159076
0.163526
0.167938
0.172288
0.176607
0.180866
0.185104
0.189286
0.193458
0.197572
0.201691
0.205749
0.209829
0.213844
0.217897
0.221883
0.225923
0.229897
0.233937
0.237914
0.241966
0.245963
0.25004
0.25407
0.258184
0.262261
0.266426
0.270561
0.274792
0.278998
0.283309
0.287599
0.292003
0.296392
0.300903
0.305401
0.310031
0.314647
0.319403
0.324144
0.329031
0.333902
0.338915
0.343919
0.349048
0.354186
0.359422
0.3647
0.370046
0.375469
0.380938
0.386518
0.39213
0.39788
0.403658
0.409592
0.415551
0.421676
0.427819
0.434132
0.440452
0.446937
0.453413
0.460046
0.466652
0.473409
0.480127
0.486992
0.493827
0.500812
0.507792
0.514942
0.522114
0.529494
0.536918
0.544587
0.552331
0.560327
0.568446
0.57679
0.585303
0.594008
0.602908
0.611981
0.621258
0.630696
0.640361
0.650168
0.660261
0.670473
0.681077
0.691779
0.702991
0.714319
0.726205
0.738289
0.750908
0.763819
0.777232
0.790948
0.805213
0.819681
0.834791
0.850028
0.865935
0.88199
0.898616
0.915407
0.932799
0.95039
0.96841
0.986604
1.00462
1.02234
1.03952
1.05812
1.08218
1.1114
1.14576
1.18689
1.23191
1.28465
1.3418
1.40777
1.47548
1.54901
1.62021
1.69487
1.76749
1.84393
1.91895
1.99608
2.07273
2.14869
2.22489
2.29692
2.36903
2.43429
2.49802
2.55432
2.60622
2.65206
2.6907
2.72484
2.7505
2.77134
2.78465
2.78964
2.78997
2.77554
2.75952
2.72243
2.68262
2.62147
2.54769
2.46109
2.35027
2.23185
2.09434
1.93921
1.78749
1.64123
1.47453
0.0118089
0.0121501
0.0129031
0.0140776
0.0156771
0.0176854
0.0200675
0.0227929
0.0258399
0.0291895
0.0328181
0.0366968
0.0407967
0.0450939
0.0495662
0.0541878
0.0589319
0.0637755
0.0687012
0.0736925
0.0787312
0.0837984
0.0888765
0.0939549
0.0990222
0.104074
0.109098
0.114091
0.119039
0.123943
0.128791
0.13359
0.138331
0.14302
0.147653
0.152232
0.156756
0.161226
0.165644
0.170008
0.174326
0.178595
0.182825
0.187013
0.191166
0.195287
0.199376
0.203445
0.207481
0.21151
0.215505
0.219509
0.223479
0.22747
0.23143
0.235422
0.239388
0.243395
0.247382
0.251415
0.255438
0.25951
0.263581
0.267704
0.271837
0.276024
0.280231
0.284494
0.288785
0.293136
0.297518
0.301967
0.306444
0.310991
0.315564
0.320204
0.324864
0.329587
0.334324
0.339115
0.343919
0.348772
0.353637
0.358554
0.363487
0.368487
0.373509
0.378623
0.38377
0.389038
0.394354
0.399815
0.405344
0.411029
0.4168
0.422723
0.428742
0.434905
0.441151
0.447537
0.453974
0.460553
0.467147
0.473884
0.48062
0.487487
0.494377
0.501371
0.508448
0.515602
0.522905
0.530288
0.537838
0.545539
0.553341
0.561431
0.569512
0.578011
0.586441
0.595333
0.6042
0.613495
0.622862
0.632629
0.642512
0.65285
0.663251
0.674222
0.685187
0.696789
0.708409
0.72061
0.732963
0.745769
0.758853
0.772358
0.786071
0.800401
0.814643
0.829799
0.844679
0.860449
0.876222
0.892348
0.909158
0.925633
0.943319
0.960345
0.978301
0.995405
1.01289
1.02951
1.04843
1.07222
1.10176
1.13596
1.17794
1.22332
1.27678
1.33288
1.39958
1.46576
1.53871
1.61
1.68437
1.75783
1.83374
1.90983
1.98643
2.06461
2.14058
2.21878
2.29168
2.3662
2.43329
2.50001
2.55902
2.61485
2.66374
2.70758
2.74408
2.77666
2.79823
2.82019
2.8247
2.83398
2.82003
2.81064
2.77689
2.74034
2.68405
2.61224
2.52807
2.42067
2.29966
2.16379
2.0079
1.85433
1.69505
1.52964
0.0137545
0.0140954
0.0148506
0.0160359
0.017663
0.0197129
0.0221434
0.024921
0.0280236
0.0314326
0.035122
0.0390616
0.0432203
0.0475742
0.0520991
0.0567694
0.0615566
0.0664379
0.0713951
0.0764117
0.0814699
0.0865494
0.0916351
0.096713
0.101777
0.106817
0.111828
0.116799
0.121727
0.1266
0.131422
0.136183
0.140892
0.14554
0.150137
0.154671
0.159157
0.163581
0.167958
0.172276
0.176553
0.180777
0.184965
0.189109
0.193222
0.1973
0.201351
0.205377
0.209377
0.213365
0.217327
0.221292
0.22523
0.229185
0.233113
0.237075
0.241008
0.244989
0.248942
0.252955
0.256943
0.260998
0.265036
0.269144
0.273245
0.277417
0.281593
0.285838
0.290098
0.294425
0.29877
0.303182
0.307609
0.312099
0.316599
0.321152
0.325705
0.330304
0.334889
0.339516
0.344113
0.348765
0.353368
0.358056
0.362684
0.367442
0.37214
0.377019
0.381852
0.386909
0.39195
0.397239
0.402553
0.408116
0.413745
0.419603
0.425558
0.431711
0.437971
0.444399
0.45092
0.45759
0.464321
0.471195
0.478096
0.485141
0.492191
0.499397
0.506599
0.513978
0.521351
0.528942
0.536507
0.544371
0.55214
0.560345
0.568354
0.57694
0.585273
0.594252
0.603017
0.612421
0.621703
0.631597
0.641445
0.651897
0.662337
0.673383
0.684428
0.696076
0.707747
0.719989
0.732304
0.745158
0.758108
0.771618
0.785192
0.799394
0.813624
0.828416
0.843488
0.858699
0.874699
0.890413
0.907127
0.923662
0.940848
0.958308
0.97592
0.993559
1.01108
1.02825
1.04707
1.07012
1.09804
1.13049
1.1694
1.2118
1.26262
1.31647
1.38141
1.44631
1.51589
1.58567
1.65912
1.73375
1.81012
1.88865
1.96634
2.04724
2.1244
2.20522
2.27959
2.35697
2.42616
2.4966
2.5584
2.61921
2.67139
2.72132
2.76137
2.80042
2.82609
2.85352
2.86399
2.87564
2.87138
2.86005
2.83924
2.79889
2.75365
2.6822
2.60045
2.50008
2.37408
2.24333
2.08752
1.91795
1.7603
1.59695
0.0159163
0.0162568
0.0170138
0.0182102
0.0198669
0.0219627
0.0244458
0.0272802
0.0304431
0.0339165
0.0376715
0.0416766
0.0458984
0.0503125
0.0548934
0.0596147
0.0644472
0.0693669
0.0743567
0.0793981
0.0844758
0.089566
0.0946583
0.0997332
0.104792
0.109817
0.114813
0.119758
0.124662
0.129501
0.134292
0.139013
0.143686
0.148289
0.152846
0.157334
0.161776
0.166152
0.170483
0.174755
0.178984
0.183163
0.187303
0.191404
0.19547
0.199508
0.203511
0.2075
0.211455
0.215407
0.219326
0.223258
0.227153
0.23108
0.234965
0.238904
0.242793
0.246757
0.250664
0.254665
0.258608
0.262654
0.266649
0.270747
0.274811
0.27897
0.283116
0.287345
0.29158
0.295886
0.300211
0.304599
0.309005
0.313469
0.317941
0.322469
0.326982
0.331556
0.336085
0.340694
0.345222
0.34987
0.3544
0.359108
0.363673
0.368483
0.373146
0.378117
0.382963
0.388157
0.393273
0.398752
0.404206
0.410025
0.415851
0.422045
0.428242
0.43482
0.441361
0.448299
0.455145
0.462391
0.469499
0.476985
0.48431
0.491978
0.499474
0.507286
0.514916
0.522857
0.530611
0.538675
0.546572
0.554781
0.562849
0.571259
0.579535
0.588208
0.596755
0.605752
0.614637
0.624041
0.633304
0.643196
0.652898
0.663291
0.673532