/*--------------------------------*- C++ -*----------------------------------*\
  =========                 |
  \\      /  F ield         | OpenFOAM: The Open Source CFD Toolbox
   \\    /   O peration     | Website:  https://openfoam.org
    \\  /    A nd           | Version:  8
     \\/     M anipulation  |
\*---------------------------------------------------------------------------*/
FoamFile
{
    version     2.0;
    format      ascii;
    class       volScalarField;
    location    "101";
    object      nut;
}
// * * * * * * * * * * * * * * * * * * * * * * * * * * * * * * * * * * * * * //

dimensions      [0 2 -1 0 0 0 0];

internalField   nonuniform List<scalar> 
65000
(
0.000851369
0.000850007
0.000848684
0.000847374
0.000846105
0.000844846
0.000843628
0.00084242
0.000841249
0.000840091
0.000838965
0.000837858
0.000836774
0.000835717
0.000834674
0.000833666
0.000832661
0.000831703
0.000830734
0.000829824
0.000828892
0.000828028
0.000827132
0.000826313
0.000825452
0.000824676
0.00082385
0.000823117
0.000822323
0.000821631
0.000820871
0.000820219
0.000819491
0.000818877
0.000818182
0.000817603
0.000816942
0.000816395
0.000815769
0.000815251
0.000814662
0.000814168
0.000813619
0.000813146
0.000812636
0.000812184
0.000811712
0.000811281
0.000810842
0.000810437
0.000810026
0.00080965
0.000809263
0.000808918
0.000808552
0.000808236
0.000807894
0.0008076
0.000807289
0.000807008
0.000806738
0.000806458
0.000806237
0.000805952
0.000805785
0.000805489
0.000805374
0.00080506
0.000804985
0.000804642
0.000804574
0.000804177
0.000804064
0.00080357
0.000803339
0.000802697
0.000802264
0.000801425
0.000800717
0.000799659
0.000798644
0.0007974
0.000796115
0.000794781
0.000793345
0.000792085
0.000790694
0.000789715
0.000788609
0.000788124
0.000787546
0.000787731
0.000787869
0.00078882
0.00078977
0.000791473
0.000793215
0.000795545
0.000797938
0.000800672
0.000803477
0.00080634
0.000809256
0.000811975
0.000814686
0.000817043
0.000819272
0.000821142
0.0008227
0.000824049
0.000824875
0.000825736
0.000825913
0.000826343
0.000826065
0.000826125
0.00082563
0.000825389
0.000824871
0.00082442
0.000823973
0.000823423
0.000823048
0.000822492
0.000822139
0.000821629
0.000821246
0.000820802
0.000820378
0.000820007
0.000819601
0.00081932
0.000819038
0.000818899
0.000818832
0.000818913
0.000819111
0.000819433
0.000819919
0.000820397
0.00082115
0.000821662
0.000822557
0.000823064
0.000823876
0.000824422
0.000824973
0.000825528
0.000825812
0.000826275
0.000826304
0.00082659
0.000826187
0.000826204
0.000825156
0.000825181
0.00082499
0.000826114
0.000828805
0.000834173
0.000842936
0.000853767
0.000868762
0.000884683
0.00090267
0.000919941
0.000938602
0.000955832
0.000973849
0.000990001
0.00100621
0.00102055
0.00103454
0.00104679
0.00105852
0.00106864
0.0010779
0.00108586
0.00109227
0.00109792
0.00110157
0.00110479
0.0011064
0.00110775
0.00110756
0.00110871
0.00110644
0.00110828
0.00110536
0.00110593
0.00110515
0.00110337
0.00110303
0.00110266
0.00109873
0.00110469
0.00111209
0.00111064
0.00110929
0.00111173
0.000851367
0.000850009
0.000848681
0.000847377
0.000846101
0.000844851
0.000843623
0.000842425
0.000841244
0.000840098
0.00083896
0.000837865
0.000836769
0.000835724
0.000834669
0.000833673
0.000832657
0.000831709
0.000830732
0.00082983
0.000828892
0.000828033
0.000827133
0.000826317
0.000825455
0.00082468
0.000823853
0.000823121
0.000822327
0.000821637
0.000820875
0.000820225
0.000819495
0.000818883
0.000818187
0.000817608
0.000816949
0.000816398
0.000815779
0.000815251
0.000814674
0.000814166
0.000813633
0.000813142
0.000812653
0.000812177
0.00081173
0.000811272
0.000810862
0.000810426
0.000810047
0.000809637
0.000809284
0.000808903
0.000808573
0.00080822
0.000807914
0.000807584
0.000807307
0.000806992
0.000806753
0.000806442
0.000806251
0.000805937
0.000805798
0.000805474
0.000805388
0.000805047
0.000805
0.000804626
0.000804587
0.000804151
0.000804063
0.000803518
0.000803307
0.000802596
0.000802178
0.000801249
0.00080056
0.000799391
0.000798414
0.000797043
0.000795835
0.000794373
0.00079307
0.000791704
0.000790511
0.000789475
0.000788634
0.00078817
0.000787914
0.000788217
0.000788727
0.000789905
0.000791273
0.000793313
0.000795521
0.000798292
0.000801206
0.000804489
0.000807874
0.000811408
0.00081496
0.000818494
0.000821888
0.000825208
0.000828161
0.000831106
0.000833441
0.000835898
0.000837563
0.00083947
0.00084053
0.000841872
0.000842463
0.000843275
0.000843547
0.000843906
0.000843978
0.000843997
0.000843931
0.000843734
0.000843544
0.00084324
0.000842912
0.00084256
0.000842093
0.000841702
0.000841135
0.000840695
0.000840111
0.000839641
0.000839139
0.000838711
0.000838367
0.000838089
0.000837942
0.000837876
0.000837944
0.000838061
0.000838329
0.000838531
0.000838946
0.000839157
0.000839621
0.000839825
0.000840219
0.000840398
0.000840637
0.00084075
0.00084079
0.000840739
0.000840453
0.000840025
0.000839272
0.000838354
0.000837654
0.000837504
0.000839385
0.000843716
0.000851505
0.000861273
0.000875768
0.000891385
0.000908579
0.000925853
0.00094417
0.000962099
0.000979995
0.000997044
0.00101313
0.00102823
0.00104195
0.00105447
0.00106578
0.00107535
0.00108409
0.00109059
0.00109624
0.0010999
0.00110234
0.00110374
0.00110364
0.00110382
0.00110192
0.00110234
0.00109922
0.00110013
0.00109802
0.00109678
0.00109862
0.0010945
0.00109665
0.00109667
0.00109464
0.00109802
0.00110499
0.00110857
0.00111117
0.001112
0.000851366
0.000850011
0.000848679
0.00084738
0.000846099
0.000844854
0.000843621
0.000842429
0.000841242
0.000840102
0.000838959
0.00083787
0.000836768
0.000835729
0.000834669
0.000833678
0.000832659
0.000831714
0.000830735
0.000829834
0.000828896
0.000828037
0.000827139
0.000826322
0.000825462
0.000824685
0.000823862
0.000823127
0.000822336
0.000821643
0.000820885
0.000820231
0.000819507
0.000818887
0.000818201
0.000817611
0.000816964
0.000816399
0.000815796
0.000815251
0.000814692
0.000814167
0.000813649
0.000813145
0.000812666
0.000812185
0.000811739
0.000811284
0.000810867
0.000810443
0.000810048
0.000809658
0.000809281
0.000808929
0.000808565
0.000808251
0.000807902
0.00080762
0.000807293
0.000807032
0.000806739
0.000806485
0.000806239
0.00080598
0.000805793
0.000805519
0.000805392
0.000805095
0.000805016
0.000804685
0.000804625
0.000804238
0.000804144
0.000803665
0.00080347
0.000802855
0.000802491
0.000801699
0.000801126
0.000800145
0.000799369
0.00079824
0.000797335
0.000796165
0.000795271
0.000794226
0.000793532
0.000792817
0.000792528
0.00079235
0.000792649
0.000793173
0.00079418
0.000795498
0.000797252
0.000799352
0.000801797
0.000804568
0.00080756
0.000810814
0.000814133
0.000817651
0.000821028
0.000824603
0.000827775
0.000831224
0.000833979
0.000837142
0.000839356
0.000842096
0.000843736
0.000845961
0.000847055
0.000848735
0.000849331
0.000850488
0.000850646
0.000851337
0.000851126
0.000851426
0.000850928
0.000850918
0.000850215
0.000849979
0.000849135
0.000848745
0.000847813
0.00084732
0.000846354
0.000845796
0.000844867
0.000844279
0.000843473
0.000842897
0.000842278
0.000841763
0.000841353
0.000840928
0.000840702
0.000840361
0.000840269
0.000839988
0.000839959
0.000839772
0.000839704
0.00083967
0.000839517
0.00083957
0.00083939
0.00083939
0.000839255
0.000839045
0.000838813
0.000838297
0.00083763
0.000836712
0.000835837
0.000835548
0.000837203
0.000840912
0.000848234
0.000857695
0.000871863
0.000887356
0.000905065
0.000922701
0.000941379
0.000960034
0.00097854
0.000997028
0.00101392
0.00103076
0.00104511
0.00105904
0.00107043
0.0010806
0.00108876
0.00109492
0.0010996
0.00110214
0.0011036
0.00110333
0.00110265
0.00110083
0.00109902
0.00109741
0.001095
0.00109439
0.00109312
0.00109141
0.0010939
0.00109027
0.00109295
0.00109571
0.00109134
0.00109903
0.00110733
0.0011126
0.00111308
0.00112173
0.000851366
0.000850011
0.00084868
0.00084738
0.000846101
0.000844854
0.000843624
0.000842429
0.000841246
0.000840102
0.000838963
0.00083787
0.000836773
0.00083573
0.000834675
0.00083368
0.000832665
0.000831717
0.000830742
0.000829838
0.000828904
0.000828043
0.000827147
0.000826328
0.000825471
0.000824693
0.000823872
0.000823135
0.000822348
0.000821652
0.000820898
0.00082024
0.000819522
0.000818897
0.000818216
0.000817621
0.000816979
0.000816412
0.000815808
0.000815268
0.000814701
0.000814187
0.000813655
0.000813169
0.000812668
0.000812212
0.000811739
0.000811313
0.000810867
0.000810473
0.00081005
0.000809688
0.000809286
0.000808957
0.000808576
0.000808278
0.000807919
0.000807647
0.000807317
0.00080706
0.000806769
0.000806518
0.000806274
0.000806021
0.000805829
0.00080557
0.000805428
0.000805162
0.000805055
0.000804778
0.000804679
0.000804381
0.000804245
0.000803903
0.000803679
0.000803265
0.000802911
0.000802398
0.000801898
0.000801287
0.000800671
0.000800002
0.000799353
0.000798714
0.000798163
0.000797676
0.000797377
0.000797175
0.000797278
0.000797483
0.000798094
0.000798791
0.000799954
0.000801171
0.000802854
0.000804561
0.000806665
0.000808769
0.000811153
0.000813516
0.000816015
0.000818485
0.000820941
0.000823366
0.000825626
0.000827862
0.000829808
0.000831741
0.000833303
0.000834849
0.000835992
0.000837113
0.000837818
0.000838523
0.000838782
0.000839108
0.000838935
0.000838925
0.000838368
0.000838057
0.000837209
0.000836631
0.000835607
0.000834817
0.000833717
0.000832792
0.000831685
0.000830717
0.000829658
0.000828718
0.00082777
0.000826903
0.000826116
0.000825352
0.00082473
0.000824098
0.000823602
0.000823121
0.000822694
0.000822353
0.000821991
0.000821708
0.000821455
0.000821174
0.000821006
0.000820786
0.000820606
0.000820507
0.000820341
0.000820203
0.000820262
0.000819916
0.000819887
0.000819346
0.000818817
0.000817842
0.000817543
0.000818301
0.000821345
0.000826206
0.00083496
0.000845525
0.000859835
0.000875147
0.000894651
0.000913094
0.000932684
0.000952126
0.000972209
0.000992062
0.00101112
0.0010293
0.00104593
0.00106056
0.00107388
0.00108396
0.00109344
0.00109906
0.00110444
0.0011063
0.00110809
0.00110699
0.00110646
0.00110373
0.00110165
0.00109961
0.00109607
0.00109603
0.00109302
0.00109259
0.00109375
0.00109066
0.00109565
0.00109357
0.00110319
0.0011054
0.00112151
0.00112322
0.0011161
0.00111378
0.000851367
0.000850011
0.000848682
0.00084738
0.000846103
0.000844854
0.000843628
0.000842429
0.00084125
0.000840102
0.000838968
0.000837871
0.000836779
0.000835732
0.000834681
0.000833683
0.000832672
0.000831721
0.00083075
0.000829844
0.000828913
0.00082805
0.000827158
0.000826337
0.000825483
0.000824703
0.000823886
0.000823145
0.000822365
0.000821662
0.000820918
0.000820251
0.000819542
0.00081891
0.000818237
0.000817637
0.000816999
0.000816431
0.000815827
0.000815291
0.000814717
0.000814214
0.000813669
0.000813198
0.000812682
0.000812242
0.000811753
0.000811345
0.000810883
0.000810504
0.000810069
0.000809719
0.00080931
0.000808988
0.000808605
0.000808309
0.000807954
0.000807679
0.000807358
0.000807097
0.000806814
0.000806561
0.000806321
0.000806071
0.000805877
0.000805629
0.000805474
0.000805228
0.000805101
0.000804856
0.000804735
0.000804479
0.000804334
0.00080405
0.000803849
0.000803515
0.000803235
0.000802841
0.000802483
0.000802044
0.000801647
0.000801213
0.000800857
0.000800507
0.000800299
0.000800127
0.000800178
0.000800264
0.000800659
0.000801052
0.000801824
0.000802529
0.000803651
0.00080463
0.000806019
0.000807202
0.000808743
0.000810036
0.000811612
0.000812914
0.000814421
0.000815622
0.000816975
0.000817983
0.000819128
0.00081988
0.000820785
0.000821249
0.000821896
0.000822077
0.000822445
0.000822381
0.000822446
0.000822194
0.000821937
0.000821544
0.000820973
0.000820458
0.000819622
0.00081898
0.000817967
0.000817194
0.000816103
0.000815229
0.000814133
0.000813245
0.00081218
0.000811395
0.000810397
0.000809791
0.000808946
0.000808517
0.000807926
0.000807628
0.000807341
0.000807126
0.000807133
0.000806993
0.00080721
0.000807201
0.00080752
0.000807683
0.000808049
0.000808387
0.00080876
0.000809261
0.000809661
0.000810242
0.000810709
0.000811271
0.000811756
0.00081219
0.000812237
0.000812148
0.000811622
0.000811116
0.000812305
0.000814834
0.000819267
0.000825618
0.000833652
0.000845196
0.000858169
0.000873283
0.000892342
0.000910586
0.000930382
0.00094934
0.000969988
0.000989742
0.00101015
0.00102878
0.00104722
0.00106264
0.0010775
0.00108854
0.00109874
0.00110543
0.00111078
0.00111373
0.00111513
0.00111504
0.0011138
0.00111217
0.00110869
0.00110795
0.00110254
0.00110344
0.00109898
0.00109888
0.00109896
0.00109695
0.00109924
0.00110235
0.0011009
0.00110679
0.00111798
0.00111595
0.00111923
0.00111646
0.000851367
0.000850011
0.000848682
0.000847381
0.000846105
0.000844856
0.000843629
0.000842432
0.000841253
0.000840106
0.000838972
0.000837875
0.000836784
0.000835736
0.000834688
0.000833688
0.000832681
0.000831726
0.000830761
0.00082985
0.000828927
0.000828056
0.000827174
0.000826344
0.000825503
0.00082471
0.000823909
0.000823152
0.000822392
0.000821669
0.000820948
0.000820259
0.000819575
0.000818919
0.000818272
0.000817649
0.000817035
0.000816447
0.000815862
0.00081531
0.000814752
0.000814236
0.000813705
0.000813223
0.000812719
0.000812269
0.000811793
0.000811372
0.000810925
0.000810531
0.000810115
0.000809746
0.000809359
0.000809016
0.000808657
0.000808339
0.000808007
0.000807713
0.00080741
0.000807136
0.000806863
0.000806606
0.000806367
0.000806124
0.000805917
0.000805689
0.000805507
0.000805295
0.000805125
0.000804925
0.00080475
0.00080455
0.000804348
0.00080413
0.000803881
0.00080363
0.000803325
0.000803037
0.00080269
0.000802387
0.000802045
0.000801779
0.000801517
0.00080136
0.000801269
0.000801293
0.000801453
0.00080171
0.000802161
0.000802664
0.000803392
0.000804105
0.000805044
0.000805894
0.00080694
0.000807827
0.000808866
0.000809685
0.000810615
0.00081127
0.000812017
0.00081244
0.00081296
0.000813121
0.000813393
0.000813293
0.000813319
0.000812989
0.000812788
0.000812279
0.000811877
0.000811253
0.000810677
0.000810004
0.000809275
0.000808609
0.000807752
0.000807126
0.00080618
0.0008056
0.000804621
0.000804084
0.000803136
0.000802644
0.000801783
0.000801356
0.000800628
0.000800294
0.000799758
0.000799521
0.000799247
0.0007991
0.000799115
0.000799075
0.000799332
0.000799438
0.00079986
0.000800149
0.000800661
0.000801174
0.000801716
0.000802443
0.000803048
0.000803888
0.000804618
0.000805538
0.00080635
0.000807425
0.000808168
0.000809453
0.000810131
0.000811253
0.000811609
0.000812121
0.00081154
0.000811109
0.000811996
0.000814412
0.000818802
0.000825103
0.000833278
0.000843378
0.000856413
0.000870917
0.000889077
0.000906687
0.000925974
0.000944804
0.000965424
0.00098554
0.00100671
0.00102647
0.0010463
0.00106347
0.00107984
0.00109286
0.00110423
0.00111271
0.00111869
0.00112315
0.00112454
0.00112589
0.00112387
0.00112374
0.00111893
0.00111922
0.00111285
0.00111342
0.001109
0.00110785
0.00110711
0.00110706
0.00110386
0.00111167
0.0011061
0.00111093
0.00112005
0.00112276
0.00112171
0.00112016
0.000851367
0.000850012
0.000848682
0.000847384
0.000846105
0.00084486
0.00084363
0.000842437
0.000841254
0.000840112
0.000838974
0.000837882
0.000836789
0.000835744
0.000834695
0.000833695
0.000832691
0.000831734
0.000830773
0.000829859
0.000828941
0.000828067
0.000827191
0.000826356
0.000825521
0.000824725
0.000823929
0.000823171
0.000822413
0.000821691
0.000820971
0.000820283
0.0008196
0.000818946
0.000818298
0.000817679
0.000817063
0.000816479
0.000815894
0.000815343
0.000814787
0.000814271
0.000813743
0.00081326
0.000812761
0.000812307
0.000811838
0.000811411
0.000810973
0.000810572
0.000810165
0.000809788
0.00080941
0.000809059
0.000808709
0.000808383
0.000808059
0.000807757
0.00080746
0.00080718
0.000806912
0.000806652
0.000806413
0.000806173
0.000805959
0.000805742
0.000805544
0.00080535
0.000805154
0.000804981
0.000804766
0.000804602
0.00080435
0.000804176
0.000803872
0.000803672
0.000803313
0.000803087
0.000802687
0.000802459
0.00080206
0.00080188
0.000801549
0.000801477
0.000801294
0.000801385
0.000801414
0.000801694
0.000801963
0.000802423
0.000802909
0.000803501
0.00080413
0.000804777
0.000805444
0.000806054
0.000806653
0.000807134
0.00080758
0.000807858
0.000808097
0.000808136
0.00080814
0.000807944
0.00080771
0.000807319
0.000806869
0.000806341
0.000805721
0.000805119
0.000804389
0.000803775
0.000802994
0.000802433
0.000801642
0.000801195
0.000800426
0.000800136
0.00079942
0.000799296
0.000798673
0.000798697
0.000798208
0.000798349
0.000798026
0.000798263
0.000798127
0.000798453
0.00079852
0.000798924
0.000799215
0.000799676
0.000800192
0.000800699
0.000801424
0.000801976
0.000802885
0.000803494
0.000804552
0.000805254
0.000806402
0.000807232
0.000808426
0.0008094
0.000810551
0.000811766
0.000812745
0.00081423
0.000815061
0.000816602
0.000817462
0.00081887
0.00081954
0.000820455
0.000820275
0.000819522
0.000818606
0.000819891
0.000822878
0.000828002
0.000834701
0.000843604
0.000854429
0.000868076
0.000884065
0.000903528
0.000922626
0.000942579
0.000963055
0.000984505
0.00100576
0.00102719
0.00104729
0.00106644
0.00108311
0.00109808
0.00110965
0.00111969
0.00112572
0.00113121
0.00113243
0.00113455
0.00113209
0.00113257
0.00112737
0.00112789
0.00112133
0.00112212
0.00111681
0.00111697
0.00111401
0.00111613
0.00111173
0.0011185
0.00111498
0.00111482
0.001129
0.00113029
0.00113247
0.00113315
0.000851365
0.000850016
0.000848681
0.000847388
0.000846105
0.000844866
0.00084363
0.000842444
0.000841255
0.000840121
0.000838977
0.000837892
0.000836793
0.000835755
0.0008347
0.000833708
0.000832698
0.00083175
0.000830782
0.000829877
0.000828951
0.000828088
0.000827202
0.000826381
0.000825533
0.000824753
0.000823942
0.000823203
0.000822427
0.000821727
0.000820986
0.000820323
0.000819617
0.00081899
0.000818317
0.000817724
0.000817086
0.000816526
0.00081592
0.000815392
0.000814818
0.00081432
0.000813778
0.00081331
0.000812798
0.000812358
0.000811878
0.000811464
0.000811016
0.000810626
0.000810209
0.000809844
0.000809456
0.000809115
0.000808756
0.000808438
0.000808107
0.00080781
0.00080751
0.00080723
0.000806964
0.000806699
0.000806467
0.000806219
0.000806015
0.000805791
0.000805599
0.000805407
0.000805205
0.000805049
0.000804812
0.000804683
0.000804388
0.000804266
0.000803895
0.000803756
0.000803303
0.000803132
0.000802604
0.000802406
0.000801831
0.000801628
0.000801055
0.000800882
0.000800368
0.000800254
0.000799851
0.000799813
0.00079955
0.000799579
0.000799443
0.000799506
0.000799444
0.000799503
0.000799449
0.000799462
0.000799344
0.000799267
0.000799039
0.00079885
0.000798502
0.000798196
0.000797739
0.000797349
0.000796816
0.0007964
0.000795831
0.000795455
0.000794897
0.000794615
0.000794116
0.000793964
0.000793567
0.000793572
0.000793298
0.000793487
0.000793342
0.000793731
0.000793723
0.000794291
0.000794438
0.000795133
0.000795453
0.000796208
0.000796702
0.000797471
0.000798124
0.000798884
0.00079968
0.00080042
0.000801351
0.000802068
0.000803111
0.000803828
0.000804941
0.000805705
0.000806866
0.000807713
0.000808945
0.000809908
0.000811223
0.000812337
0.000813705
0.000815004
0.000816319
0.000817833
0.000819007
0.00082065
0.000821726
0.000823287
0.000824346
0.000825824
0.000826707
0.000827739
0.00082799
0.000827691
0.000826013
0.000826877
0.0008294
0.000834254
0.000840942
0.000850356
0.000861882
0.000876621
0.00089291
0.000911813
0.000930199
0.000950364
0.000969975
0.000991926
0.00101253
0.00103462
0.00105397
0.00107389
0.00108973
0.00110536
0.00111633
0.00112649
0.00113251
0.00113736
0.00113919
0.00114007
0.00113867
0.00113769
0.00113373
0.00113308
0.00112746
0.00112792
0.00112288
0.00112355
0.00112088
0.00112223
0.00112106
0.00112271
0.00112545
0.001128
0.00114568
0.00114047
0.00114221
0.00113865
0.000851362
0.00085002
0.00084868
0.000847394
0.000846104
0.000844873
0.000843631
0.000842454
0.000841257
0.000840132
0.00083898
0.000837905
0.000836798
0.00083577
0.000834707
0.000833726
0.000832706
0.000831769
0.000830793
0.000829899
0.000828964
0.000828113
0.000827217
0.000826409
0.00082555
0.000824786
0.000823961
0.000823239
0.000822447
0.000821767
0.000821008
0.000820367
0.000819642
0.000819036
0.000818346
0.000817772
0.000817118
0.000816575
0.000815957
0.000815441
0.00081486
0.000814371
0.000813824
0.000813361
0.000812848
0.000812411
0.000811929
0.00081152
0.000811066
0.000810686
0.000810258
0.000809907
0.000809504
0.000809181
0.000808803
0.000808505
0.000808155
0.000807877
0.000807561
0.000807294
0.000807019
0.00080676
0.000806526
0.000806278
0.000806078
0.000805853
0.000805666
0.000805482
0.00080528
0.000805153
0.000804905
0.000804836
0.00080452
0.00080449
0.000804092
0.000804072
0.000803582
0.000803544
0.000802961
0.000802885
0.000802215
0.000802093
0.00080136
0.00080119
0.000800425
0.000800209
0.000799441
0.000799174
0.000798417
0.000798085
0.000797324
0.000796911
0.000796102
0.000795589
0.000794659
0.000794037
0.000792949
0.000792231
0.000790993
0.00079019
0.000788861
0.000787999
0.000786683
0.000785806
0.000784604
0.00078378
0.000782762
0.000782075
0.000781277
0.00078081
0.000780238
0.000780056
0.000779707
0.000779841
0.000779707
0.000780162
0.000780233
0.000780973
0.000781249
0.000782187
0.000782676
0.000783686
0.000784378
0.000785348
0.000786189
0.000787063
0.000787977
0.000788744
0.000789676
0.000790329
0.000791265
0.000791803
0.000792732
0.000793204
0.000794087
0.000794603
0.000795441
0.000796092
0.000796998
0.000797837
0.000798917
0.000800017
0.000801267
0.000802661
0.000803971
0.000805639
0.00080689
0.00080862
0.000809742
0.000811456
0.000812376
0.00081379
0.000814098
0.000815068
0.000815001
0.000815025
0.00081679
0.000821131
0.00082649
0.000834421
0.000843564
0.00085609
0.000869892
0.000887353
0.000904375
0.000923686
0.000941921
0.000962745
0.000982316
0.00100419
0.00102402
0.00104554
0.00106376
0.00108294
0.00109771
0.00111253
0.00112275
0.00113208
0.00113756
0.00114178
0.00114296
0.00114371
0.00114137
0.00114087
0.00113602
0.00113598
0.0011304
0.00113083
0.00112726
0.00112701
0.00112699
0.0011264
0.00112886
0.00112807
0.00113379
0.00112856
0.00113931
0.00114388
0.00114736
0.00114749
0.000851363
0.000850021
0.000848682
0.000847396
0.000846108
0.000844876
0.000843637
0.000842457
0.000841266
0.000840136
0.000838992
0.00083791
0.000836814
0.000835775
0.000834727
0.000833731
0.000832731
0.000831775
0.000830822
0.000829906
0.000828997
0.000828122
0.000827253
0.000826422
0.000825589
0.000824802
0.000824002
0.000823259
0.00082249
0.000821792
0.000821052
0.000820397
0.000819687
0.000819071
0.000818392
0.000817812
0.000817167
0.000816618
0.000816008
0.000815488
0.000814913
0.000814421
0.000813879
0.000813415
0.000812903
0.00081247
0.000811983
0.000811583
0.000811119
0.000810754
0.00081031
0.000809979
0.000809554
0.000809257
0.000808853
0.000808583
0.000808206
0.000807956
0.000807614
0.000807375
0.000807073
0.000806842
0.000806582
0.000806362
0.000806136
0.000805942
0.000805731
0.000805584
0.000805367
0.000805283
0.000805045
0.000805029
0.000804759
0.000804802
0.000804497
0.00080458
0.000804234
0.000804335
0.000803938
0.000804031
0.000803574
0.000803629
0.000803101
0.000803083
0.000802473
0.000802344
0.000801627
0.000801349
0.000800489
0.000800025
0.000798972
0.000798293
0.000796989
0.000796081
0.000794493
0.000793361
0.000791482
0.000790135
0.000788026
0.000786495
0.000784278
0.000782614
0.000780434
0.000778703
0.00077668
0.000774976
0.000773186
0.000771623
0.000770107
0.000768795
0.000767578
0.000766595
0.000765707
0.000765086
0.000764545
0.000764289
0.000764083
0.000764162
0.000764249
0.000764587
0.000764919
0.000765389
0.000765909
0.000766392
0.00076704
0.000767466
0.000768195
0.000768534
0.000769307
0.000769582
0.000770352
0.000770638
0.000771342
0.000771754
0.000772351
0.000772997
0.000773536
0.000774433
0.0007751
0.000776193
0.000777128
0.000778407
0.000779651
0.000781029
0.000782559
0.000783978
0.00078547
0.000786922
0.000788038
0.000789398
0.000789792
0.000790395
0.000789791
0.000789421
0.000790674
0.00079379
0.000799182
0.000806165
0.000815214
0.000826524
0.00083963
0.000856683
0.000873954
0.000892644
0.000911414
0.000931901
0.000951579
0.000973167
0.000992931
0.00101469
0.00103361
0.0010543
0.00107119
0.00108916
0.00110283
0.00111643
0.00112596
0.00113437
0.00113932
0.00114316
0.00114365
0.00114467
0.0011416
0.00114153
0.00113675
0.00113634
0.0011326
0.00113151
0.00113083
0.00112944
0.00113107
0.00113128
0.00113317
0.00113533
0.00113633
0.00114227
0.00115857
0.00116904
0.00116441
0.00116509
0.000851367
0.000850017
0.000848688
0.000847393
0.000846116
0.000844875
0.000843647
0.000842457
0.000841278
0.000840138
0.000839007
0.000837914
0.000836832
0.000835782
0.000834748
0.00083374
0.000832755
0.000831787
0.000830849
0.000829921
0.000829027
0.000828141
0.000827286
0.000826444
0.000825625
0.000824828
0.00082404
0.00082329
0.000822531
0.000821827
0.000821096
0.000820435
0.000819734
0.000819113
0.000818442
0.000817858
0.000817218
0.000816668
0.000816061
0.000815543
0.000814967
0.000814479
0.000813935
0.000813476
0.000812962
0.000812533
0.000812047
0.000811647
0.000811188
0.000810817
0.000810384
0.000810042
0.000809634
0.00080932
0.000808937
0.000808648
0.000808293
0.000808027
0.0008077
0.000807454
0.000807156
0.000806931
0.000806659
0.000806462
0.000806208
0.00080605
0.000805806
0.000805698
0.00080546
0.00080541
0.000805182
0.000805187
0.000804978
0.000805029
0.000804847
0.000804931
0.000804771
0.000804868
0.000804718
0.000804797
0.000804632
0.000804646
0.000804428
0.000804324
0.000804
0.000803717
0.000803222
0.000802701
0.000801962
0.000801153
0.000800101
0.000798972
0.000797553
0.000796095
0.000794286
0.000792515
0.00079034
0.000788291
0.000785824
0.000783529
0.000780877
0.000778382
0.00077566
0.000773042
0.00077035
0.000767716
0.000765125
0.000762596
0.000760174
0.000757859
0.000755685
0.000753661
0.000751821
0.000750133
0.000748683
0.000747357
0.000746286
0.00074532
0.000744559
0.000743896
0.000743362
0.000742895
0.000742537
0.000742146
0.00074194
0.000741553
0.000741487
0.00074111
0.000741175
0.000740882
0.000741065
0.000740961
0.000741239
0.000741434
0.00074179
0.000742341
0.000742822
0.000743669
0.000744394
0.000745419
0.000746445
0.000747578
0.000748831
0.000750044
0.000751337
0.00075262
0.000753665
0.000754912
0.000755394
0.0007561
0.00075575
0.000755356
0.000754889
0.000756395
0.000759619
0.000765376
0.000774041
0.000784433
0.000797744
0.000813011
0.000832689
0.000851612
0.000871787
0.00089195
0.000912504
0.000933777
0.000954306
0.000976027
0.000995971
0.00101728
0.00103601
0.00105585
0.00107245
0.00108948
0.00110287
0.00111569
0.00112507
0.00113291
0.00113795
0.00114132
0.00114224
0.00114279
0.00114049
0.00113992
0.00113632
0.0011353
0.00113286
0.00113166
0.0011314
0.00113135
0.00113192
0.00113476
0.00113414
0.00114035
0.00113863
0.00114816
0.00116362
0.00117646
0.00117458
0.0011845
0.00085137
0.000850015
0.000848693
0.000847392
0.000846123
0.000844875
0.000843657
0.00084246
0.00084129
0.000840143
0.000839022
0.000837921
0.000836848
0.000835792
0.000834767
0.000833755
0.000832776
0.000831807
0.000830871
0.000829947
0.000829049
0.000828173
0.000827309
0.000826482
0.000825649
0.000824871
0.000824066
0.000823338
0.00082256
0.000821878
0.000821129
0.00082049
0.00081977
0.000819171
0.000818482
0.00081792
0.000817261
0.000816734
0.000816105
0.000815614
0.000815012
0.000814557
0.000813979
0.000813561
0.000813005
0.000812624
0.000812089
0.000811744
0.000811231
0.00081092
0.000810429
0.000810148
0.000809683
0.000809428
0.000808991
0.000808759
0.000808352
0.000808139
0.000807763
0.000807569
0.00080722
0.000807052
0.000806721
0.000806587
0.000806269
0.000806176
0.000805869
0.000805822
0.000805532
0.000805529
0.000805266
0.000805307
0.00080508
0.000805162
0.000804973
0.000805092
0.000804935
0.000805077
0.000804941
0.000805068
0.000804939
0.000804991
0.000804842
0.00080475
0.000804542
0.000804244
0.000803921
0.000803376
0.00080287
0.000802059
0.000801304
0.000800224
0.000799166
0.000797821
0.000796437
0.00079483
0.00079313
0.000791261
0.000789292
0.000787158
0.000784982
0.000782593
0.000780264
0.000777669
0.000775225
0.00077251
0.000769991
0.00076726
0.000764736
0.000762084
0.00075967
0.000757167
0.00075499
0.000752692
0.000750839
0.000748799
0.000747276
0.000745528
0.00074427
0.000742802
0.000741714
0.000740459
0.000739458
0.000738319
0.000737373
0.000736286
0.000735418
0.000734393
0.000733654
0.000732767
0.000732221
0.000731584
0.000731259
0.000730972
0.000730859
0.000730969
0.00073104
0.000731501
0.00073174
0.000732427
0.000732793
0.000733594
0.000734026
0.000734803
0.000735301
0.000735808
0.00073637
0.000736544
0.000736774
0.00073635
0.000735631
0.000734843
0.00073426
0.000736365
0.000741532
0.000748397
0.000759425
0.000771584
0.000787885
0.000804981
0.000826522
0.000848084
0.000871088
0.000892933
0.000914948
0.000936447
0.000957514
0.000978595
0.000998399
0.00101863
0.00103678
0.00105553
0.00107131
0.00108753
0.00110005
0.00111246
0.00112111
0.00112889
0.00113357
0.00113704
0.00113815
0.00113874
0.00113723
0.00113655
0.00113387
0.00113328
0.00113061
0.0011316
0.00112897
0.00113273
0.00113017
0.00113596
0.00113398
0.00114038
0.00113881
0.00114295
0.00114883
0.00116654
0.00116288
0.00116693
0.000851372
0.000850014
0.000848697
0.000847393
0.00084613
0.000844878
0.000843666
0.000842464
0.000841302
0.000840149
0.000839037
0.00083793
0.000836866
0.000835805
0.000834788
0.000833771
0.000832799
0.000831828
0.000830895
0.000829974
0.000829075
0.000828206
0.000827337
0.000826521
0.000825677
0.000824917
0.000824097
0.000823388
0.000822594
0.000821933
0.000821167
0.000820549
0.000819812
0.000819233
0.000818529
0.000817986
0.000817312
0.000816805
0.000816159
0.000815689
0.000815068
0.000814638
0.000814037
0.00081365
0.000813062
0.000812721
0.000812145
0.000811849
0.000811285
0.000811032
0.000810481
0.000810267
0.000809735
0.000809552
0.000809044
0.000808885
0.000808407
0.000808267
0.000807819
0.000807698
0.000807278
0.000807181
0.000806782
0.000806715
0.000806332
0.000806303
0.000805935
0.000805946
0.000805599
0.000805652
0.000805334
0.000805431
0.000805149
0.000805295
0.000805052
0.000805249
0.00080504
0.000805268
0.000805087
0.000805304
0.000805155
0.000805305
0.000805197
0.000805225
0.000805146
0.000805004
0.000804922
0.000804595
0.000804463
0.000803962
0.000803736
0.000803083
0.00080273
0.000801945
0.000801449
0.000800535