/*--------------------------------*- C++ -*----------------------------------*\
  =========                 |
  \\      /  F ield         | OpenFOAM: The Open Source CFD Toolbox
   \\    /   O peration     | Website:  https://openfoam.org
    \\  /    A nd           | Version:  8
     \\/     M anipulation  |
\*---------------------------------------------------------------------------*/
FoamFile
{
    version     2.0;
    format      ascii;
    class       volScalarField;
    location    "101";
    object      p;
}
// * * * * * * * * * * * * * * * * * * * * * * * * * * * * * * * * * * * * * //

dimensions      [0 2 -2 0 0 0 0];

internalField   nonuniform List<scalar> 
65000
(
47.919
47.9098
47.8876
47.8524
47.8053
47.747
47.6772
47.596
47.5033
47.3994
47.2843
47.1582
47.0212
46.8734
46.715
46.5461
46.3668
46.1773
45.978
45.7687
45.5497
45.3212
45.0832
44.8362
44.5801
44.3153
44.0417
43.7595
43.4688
43.1699
42.8628
42.5478
42.2249
41.8944
41.5564
41.2108
40.8578
40.4975
40.13
39.7554
39.3738
38.9853
38.5899
38.1879
37.7791
37.3637
36.9416
36.513
36.0778
35.6362
35.188
34.7334
34.2723
33.8049
33.331
32.8508
32.3641
31.8711
31.3716
30.8656
30.3532
29.8343
29.3088
28.7768
28.2382
27.6929
27.141
26.5823
26.0169
25.4446
24.8655
24.2794
23.6863
23.086
22.4787
21.864
21.2421
20.6127
19.9758
19.3314
18.6793
18.0194
17.3516
16.6759
15.9921
15.3001
14.5999
13.8912
13.174
12.4481
11.7135
10.97
10.2174
9.45569
8.68465
7.90417
7.11409
6.31428
5.50458
4.68483
3.85489
3.01458
2.16375
1.30221
0.429811
-0.453641
-1.34832
-2.25441
-3.17211
-4.1016
-5.04308
-5.99676
-6.96284
-7.94153
-8.93305
-9.93762
-10.9555
-11.9868
-13.0319
-14.091
-15.1643
-16.2521
-17.3547
-18.4722
-19.6051
-20.7534
-21.9177
-23.098
-24.2948
-25.5083
-26.7388
-27.9866
-29.2521
-30.5356
-31.8374
-33.1579
-34.4974
-35.8563
-37.235
-38.6338
-40.0531
-41.4932
-42.9547
-44.438
-45.9433
-47.4712
-49.022
-50.5962
-52.1942
-53.8164
-55.4633
-57.1352
-58.8327
-60.5563
-62.3062
-64.0831
-65.8874
-67.7196
-69.58
-71.4692
-73.3875
-75.3354
-77.3132
-79.3214
-81.3603
-83.4303
-85.5315
-87.6642
-89.8285
-92.0246
-94.2524
-96.5119
-98.8027
-101.125
-103.477
-105.859
-108.27
-110.708
-113.172
-115.661
-118.171
-120.701
-123.246
-125.805
-128.372
-130.942
-133.512
-136.073
-138.621
-141.148
-143.647
-146.109
-148.525
-150.888
-153.187
-155.415
-157.564
-159.624
-161.59
-163.457
47.9317
47.9224
47.9001
47.8646
47.8174
47.7589
47.689
47.6076
47.5147
47.4105
47.2952
47.1688
47.0316
46.8836
46.7249
46.5557
46.3761
46.1864
45.9867
45.7772
45.5579
45.3291
45.0909
44.8435
44.5872
44.3221
44.0482
43.7658
43.4749
43.1757
42.8684
42.5531
42.2301
41.8994
41.5611
41.2153
40.8621
40.5017
40.134
39.7592
39.3774
38.9888
38.5933
38.1911
37.7823
37.3667
36.9446
36.5158
36.0805
35.6388
35.1905
34.7358
34.2747
33.8072
33.3332
32.8529
32.3662
31.8731
31.3736
30.8676
30.3551
29.8361
29.3106
28.7785
28.2399
27.6946
27.1426
26.584
26.0185
25.4462
24.8671
24.281
23.6878
23.0876
22.4802
21.8655
21.2436
20.6142
19.9773
19.3329
18.6808
18.0209
17.3531
16.6774
15.9936
15.3016
14.6014
13.8927
13.1755
12.4496
11.715
10.9715
10.2189
9.45717
8.68613
7.90564
7.11556
6.31575
5.50604
4.68629
3.85634
3.01603
2.16519
1.30365
0.431236
-0.452224
-1.34691
-2.25302
-3.17072
-4.10022
-5.04171
-5.9954
-6.96149
-7.94019
-8.93171
-9.93629
-10.9541
-11.9855
-13.0306
-14.0897
-15.163
-16.2508
-17.3533
-18.4709
-19.6037
-20.7521
-21.9163
-23.0966
-24.2933
-25.5068
-26.7373
-27.9851
-29.2506
-30.5341
-31.8359
-33.1564
-34.4958
-35.8547
-37.2333
-38.6321
-40.0514
-41.4915
-42.953
-44.4362
-45.9415
-47.4694
-49.0202
-50.5944
-52.1923
-53.8145
-55.4614
-57.1334
-58.8309
-60.5544
-62.3043
-64.0812
-65.8854
-67.7175
-69.578
-71.4671
-73.3854
-75.3333
-77.3112
-79.3195
-81.3584
-83.4284
-85.5297
-87.6625
-89.827
-92.0232
-94.2512
-96.5108
-98.8019
-101.124
-103.477
-105.859
-108.27
-110.709
-113.174
-115.663
-118.174
-120.704
-123.25
-125.81
-128.377
-130.949
-133.519
-136.083
-138.632
-141.16
-143.66
-146.123
-148.541
-150.905
-153.206
-155.435
-157.584
-159.646
-161.613
-163.479
47.9571
47.9475
47.9249
47.8892
47.8417
47.7829
47.7126
47.6308
47.5375
47.4329
47.317
47.1902
47.0524
46.9038
46.7446
46.5748
46.3947
46.2045
46.0042
45.7941
45.5743
45.3449
45.1061
44.8582
44.6014
44.3357
44.0614
43.7784
43.487
43.1873
42.8796
42.5639
42.2404
41.9093
41.5706
41.2244
40.8709
40.51
40.142
39.7669
39.3848
38.9959
38.6002
38.1977
37.7885
37.3728
36.9504
36.5214
36.086
35.644
35.1955
34.7407
34.2794
33.8117
33.3377
32.8572
32.3704
31.8772
31.3775
30.8714
30.3588
29.8398
29.3142
28.7821
28.2433
27.698
27.146
26.5873
26.0218
25.4494
24.8702
24.2841
23.6909
23.0907
22.4832
21.8686
21.2466
20.6172
19.9803
19.3358
18.6837
18.0238
17.356
16.6803
15.9965
15.3045
14.6043
13.8956
13.1784
12.4525
11.7179
10.9744
10.2218
9.46009
8.68906
7.90859
7.11852
6.31872
5.50903
4.68931
3.85938
3.01908
2.16826
1.30675
0.434359
-0.449077
-1.34374
-2.24982
-3.16749
-4.09696
-5.03843
-5.99209
-6.95815
-7.93682
-8.92831
-9.93286
-10.9507
-11.982
-13.0271
-14.0861
-15.1594
-16.2471
-17.3496
-18.4671
-19.5999
-20.7482
-21.9124
-23.0927
-24.2894
-25.5028
-26.7332
-27.981
-29.2464
-30.5299
-31.8316
-33.1521
-34.4915
-35.8503
-37.2289
-38.6276
-40.0468
-41.4869
-42.9483
-44.4315
-45.9367
-47.4645
-49.0153
-50.5894
-52.1874
-53.8095
-55.4563
-57.1283
-58.8258
-60.5493
-62.2992
-64.0761
-65.8804
-67.7125
-69.5729
-71.4621
-73.3804
-75.3284
-77.3064
-79.3147
-81.3538
-83.424
-85.5255
-87.6586
-89.8233
-92.0199
-94.2483
-96.5084
-98.7999
-101.123
-103.476
-105.859
-108.271
-110.711
-113.176
-115.666
-118.179
-120.71
-123.258
-125.819
-128.389
-130.963
-133.536
-136.101
-138.653
-141.184
-143.687
-146.153
-148.574
-150.94
-153.244
-155.475
-157.626
-159.69
-161.657
-163.524
47.9951
47.9853
47.9623
47.9262
47.8782
47.8189
47.7481
47.6656
47.5717
47.4664
47.3498
47.2222
47.0836
46.9343
46.7743
46.6037
46.4227
46.2316
46.0305
45.8196
45.5989
45.3686
45.129
44.8803
44.6226
44.3562
44.081
43.7973
43.5052
43.2048
42.8963
42.5799
42.2558
41.9241
41.5848
41.238
40.8839
40.5225
40.154
39.7784
39.3959
39.0065
38.6104
38.2075
37.798
37.3818
36.9591
36.5298
36.0941
35.6518
35.2031
34.748
34.2864
33.8185
33.3443
32.8636
32.3766
31.8832
31.3834
30.8772
30.3645
29.8453
29.3196
28.7873
28.2485
27.7031
27.151
26.5922
26.0266
25.4542
24.875
24.2888
23.6955
23.0952
22.4878
21.8731
21.2511
20.6216
19.9847
19.3403
18.6881
18.0282
17.3604
16.6847
16.0009
15.3089
14.6086
13.9
13.1828
12.4569
11.7223
10.9788
10.2263
9.46457
8.69357
7.91313
7.12311
6.32335
5.51371
4.69403
3.86415
3.02391
2.17315
1.3117
0.43937
-0.444001
-1.3386
-2.24461
-3.16222
-4.09162
-5.03302
-5.98661
-6.9526
-7.9312
-8.92262
-9.9271
-10.9448
-11.9761
-13.0211
-14.0801
-15.1533
-16.2409
-17.3434
-18.4608
-19.5935
-20.7418
-21.9059
-23.0861
-24.2827
-25.496
-26.7264
-27.9741
-29.2395
-30.5228
-31.8245
-33.1449
-34.4842
-35.843
-37.2215
-38.6201
-40.0393
-41.4793
-42.9407
-44.4238
-45.929
-47.4567
-49.0074
-50.5815
-52.1794
-53.8015
-55.4483
-57.1202
-58.8177
-60.5411
-62.2911
-64.068
-65.8723
-67.7045
-69.565
-71.4542
-73.3727
-75.3208
-77.2989
-79.3074
-81.3468
-83.4172
-85.5191
-87.6525
-89.8177
-92.0148
-94.2437
-96.5044
-98.7968
-101.12
-103.475
-105.859
-108.272
-110.713
-113.18
-115.672
-118.186
-120.72
-123.271
-125.834
-128.407
-130.984
-133.56
-136.13
-138.685
-141.221
-143.727
-146.198
-148.623
-150.993
-153.301
-155.536
-157.69
-159.755
-161.724
-163.593
48.046
48.0358
48.0122
47.9755
47.927
47.867
47.7954
47.7121
47.6173
47.5111
47.3936
47.265
47.1254
46.975
46.8138
46.6421
46.46
46.2677
46.0655
45.8534
45.6316
45.4002
45.1595
44.9097
44.6509
44.3834
44.1072
43.8225
43.5294
43.228
42.9186
42.6013
42.2764
41.9438
41.6037
41.2561
40.9013
40.5392
40.17
39.7938
39.4106
39.0206
38.6239
38.2205
37.8105
37.3939
36.9707
36.541
36.1048
35.6622
35.2131
34.7577
34.2958
33.8276
33.3531
32.8722
32.3849
31.8913
31.3913
30.8849
30.372
29.8526
29.3268
28.7944
28.2554
27.7099
27.1577
26.5987
26.0331
25.4606
24.8813
24.295
23.7017
23.1014
22.4939
21.8791
21.2571
20.6276
19.9907
19.3462
18.694
18.0341
17.3663
16.6906
16.0068
15.3148
14.6145
13.9059
13.1887
12.4629
11.7283
10.9848
10.2323
9.47064
8.69968
7.91929
7.12932
6.32962
5.52003
4.70042
3.87061
3.03045
2.17976
1.31838
0.446137
-0.437151
-1.33166
-2.23759
-3.15511
-4.08443
-5.02574
-5.97924
-6.94514
-7.92365
-8.91499
-9.91937
-10.937
-11.9682
-13.0131
-14.072
-15.1451
-16.2327
-17.3351
-18.4524
-19.585
-20.7332
-21.8972
-23.0773
-24.2739
-25.4872
-26.7174
-27.9651
-29.2304
-30.5137
-31.8153
-33.1355
-34.4748
-35.8335
-37.212
-38.6105
-40.0296
-41.4696
-42.9309
-44.4139
-45.919
-47.4467
-48.9974
-50.5714
-52.1693
-53.7913
-55.4381
-57.11
-58.8074
-60.5309
-62.2809
-64.0578
-65.8621
-67.6944
-69.5549
-71.4443
-73.3628
-75.311
-77.2893
-79.2981
-81.3377
-83.4085
-85.5107
-87.6446
-89.8103
-92.008
-94.2377
-96.4993
-98.7926
-101.117
-103.473
-105.858
-108.273
-110.716
-113.185
-115.68
-118.197
-120.733
-123.287
-125.854
-128.431
-131.013
-133.593
-136.167
-138.729
-141.269
-143.782
-146.258
-148.688
-151.064
-153.377
-155.616
-157.774
-159.843
-161.814
-163.683
48.1098
48.099
48.0747
48.0374
47.9881
47.9273
47.8547
47.7704
47.6745
47.5671
47.4484
47.3185
47.1776
47.0258
46.8633
46.6902
46.5067
46.313
46.1093
45.8958
45.6725
45.4397
45.1976
44.9464
44.6863
44.4174
44.1399
43.8539
43.5596
43.257
42.9465
42.6281
42.302
41.9683
41.6272
41.2787
40.923
40.56
40.1899
39.8129
39.429
39.0383
38.6409
38.2368
37.8261
37.4089
36.9852
36.555
36.1183
35.6752
35.2257
34.7698
34.3075
33.839
33.3641
32.8829
32.3953
31.9014
31.4011
30.8944
30.3813
29.8618
29.3357
28.8032
28.264
27.7183
27.166
26.6069
26.0412
25.4686
24.8892
24.3028
23.7095
23.109
22.5015
21.8867
21.2646
20.6351
19.9981
19.3536
18.7014
18.0415
17.3737
16.698
16.0142
15.3222
14.6219
13.9133
13.1961
12.4704
11.7358
10.9924
10.2399
9.47827
8.70736
7.92702
7.13711
6.33747
5.52795
4.7084
3.87867
3.03858
2.18797
1.32668
0.454516
-0.428684
-1.32311
-2.22894
-3.14637
-4.07559
-5.01681
-5.97021
-6.93602
-7.91443
-8.90567
-9.90996
-10.9275
-11.9586
-13.0034
-14.0622
-15.1352
-16.2227
-17.325
-18.4422
-19.5748
-20.7229
-21.8868
-23.0668
-24.2633
-25.4765
-26.7067
-27.9542
-29.2194
-30.5026
-31.8041
-33.1243
-34.4635
-35.8221
-37.2005
-38.5989
-40.0179
-41.4578
-42.919
-44.4019
-45.907
-47.4346
-48.9852
-50.5592
-52.157
-53.779
-55.4257
-57.0976
-58.795
-60.5185
-62.2684
-64.0453
-65.8497
-67.6819
-69.5425
-71.432
-73.3506
-75.299
-77.2775
-79.2865
-81.3264
-83.3975
-85.5002
-87.6347
-89.8011
-91.9995
-94.2301
-96.4927
-98.7872
-101.113
-103.47
-105.858
-108.275
-110.72
-113.192
-115.689
-118.209
-120.75
-123.308
-125.879
-128.461
-131.048
-133.634
-136.215
-138.782
-141.33
-143.85
-146.333
-148.77
-151.153
-153.472
-155.717
-157.88
-159.952
-161.926
-163.797
48.1865
48.1751
48.15
48.1118
48.0616
47.9998
47.9261
47.8405
47.7433
47.6345
47.5143
47.3829
47.2404
47.087
46.9228
46.748
46.5627
46.3673
46.1619
45.9466
45.7217
45.4871
45.2433
44.9904
44.7287
44.4582
44.1792
43.8916
43.5958
43.2918
42.9798
42.6601
42.3327
41.9978
41.6555
41.3058
40.9489
40.5849
40.2138
39.8358
39.4509
39.0594
38.6611
38.2563
37.8449
37.4269
37.0025
36.5717
36.1344
35.6907
35.2406
34.7843
34.3216
33.8526
33.3773
32.8957
32.4077
31.9135
31.4129
30.9059
30.3925
29.8727
29.3464
28.8137
28.2743
27.7285
27.1759
26.6168
26.0509
25.4782
24.8986
24.3122
23.7187
23.1182
22.5106
21.8957
21.2736
20.6441
20.0071
19.3625
18.7103
18.0504
17.3826
16.7068
16.0231
15.3311
14.6309
13.9223
13.2051
12.4794
11.7449
11.0015
10.249
9.48748
8.71663
7.93635
7.1465
6.34692
5.53748
4.71801
3.88835
3.04834
2.19781
1.3366
0.464528
-0.418583
-1.31292
-2.21866
-3.13599
-4.06512
-5.00624
-5.95955
-6.92525
-7.90357
-8.89471
-9.8989
-10.9164
-11.9473
-12.9921
-14.0508
-15.1237
-16.2111
-17.3132
-18.4304
-19.5628
-20.7108
-21.8746
-23.0546
-24.2509
-25.464
-26.6941
-27.9415
-29.2066
-30.4897
-31.7911
-33.1112
-34.4503
-35.8088
-37.187
-38.5854
-40.0043
-41.4441
-42.9052
-44.388
-45.893
-47.4205
-48.971
-50.5449
-52.1426
-53.7645
-55.4112
-57.083
-58.7803
-60.5037
-62.2536
-64.0305
-65.8349
-67.6671
-69.5278
-71.4173
-73.3361
-75.2846
-77.2633
-79.2726
-81.3129
-83.3845
-85.4877
-87.6228
-89.7899
-91.9893
-94.2209
-96.4848
-98.7807
-101.108
-103.467
-105.857
-108.276
-110.724
-113.199
-115.7
-118.224
-120.769
-123.332
-125.909
-128.497
-131.09
-133.683
-136.271
-138.847
-141.403
-143.931
-146.423
-148.869
-151.26
-153.587
-155.839
-158.008
-160.085
-162.062
-163.935
48.2765
48.2643
48.2382
48.199
48.1477
48.0847
48.0096
47.9226
47.8238
47.7134
47.5914
47.4582
47.3138
47.1585
46.9923
46.8155
46.6282
46.4307
46.2233
46.006
45.779
45.5424
45.2966
45.0418
44.7781
44.5058
44.2249
43.9355
43.6379
43.3322
43.0186
42.6973
42.3684
42.032
41.6883
41.3373
40.9791
40.6138
40.2416
39.8624
39.4765
39.0839
38.6847
38.2789
37.8666
37.4479
37.0227
36.5911
36.1531
35.7087
35.2581
34.8011
34.3379
33.8684
33.3926
32.9105
32.4222
31.9276
31.4266
30.9193
30.4056
29.8855
29.3589
28.8259
28.2864
27.7403
27.1876
26.6282
26.0621
25.4893
24.9096
24.3231
23.7295
23.1289
22.5212
21.9063
21.2841
20.6545
20.0175
19.3729
18.7207
18.0607
17.393
16.7172
16.0335
15.3415
14.6413
13.9327
13.2157
12.49
11.7555
11.0121
10.2598
9.4983
8.72752
7.94732
7.15754
6.35805
5.54869
4.72931
3.89974
3.05982
2.20939
1.34827
0.476294
-0.406721
-1.30096
-2.2066
-3.12383
-4.05286
-4.99388
-5.94708
-6.91269
-7.8909
-8.88193
-9.88602
-10.9034
-11.9342
-12.9788
-14.0374
-15.1103
-16.1976
-17.2996
-18.4166
-19.5489
-20.6968
-21.8605
-23.0403
-24.2365
-25.4495
-26.6795
-27.9268
-29.1917
-30.4747
-31.7759
-33.0959
-34.4349
-35.7932
-37.1713
-38.5695
-39.9883
-41.428
-42.889
-44.3717
-45.8765
-47.4039
-48.9543
-50.5281
-52.1257
-53.7475
-55.3941
-57.0658
-58.7631
-60.4865
-62.2364
-64.0133
-65.8176
-67.6499
-69.5107
-71.4003
-73.3193
-75.268
-77.247
-79.2567
-81.2974
-83.3695
-85.4733
-87.6091
-89.7772
-91.9776
-94.2104
-96.4756
-98.7731
-101.103
-103.464
-105.856
-108.278
-110.729
-113.208
-115.712
-118.241
-120.791
-123.359
-125.943
-128.537
-131.138
-133.74
-136.337
-138.922
-141.487
-144.026
-146.528
-148.984
-151.385
-153.721
-155.981
-158.157
-160.24
-162.221
-164.096
48.3797
48.3666
48.3394
48.299
48.2465
48.1821
48.1055
48.0167
47.9161
47.8037
47.6798
47.5444
47.3979
47.2403
47.0718
46.8927
46.7031
46.5033
46.2935
46.0738
45.8444
45.6056
45.3575
45.1004
44.8345
44.56
44.277
43.9856
43.686
43.3784
43.0629
42.7398
42.4091
42.0711
41.7257
41.3732
41.0135
40.6468
40.2732
39.8928
39.5056
39.1118
38.7115
38.3047
37.8914
37.4717
37.0456
36.6132
36.1744
35.7293
35.2779
34.8203
34.3564
33.8864
33.41
32.9275
32.4387
31.9436
31.4422
30.9345
30.4204
29.9
29.3732
28.8399
28.3001
27.7537
27.2008
26.6412
26.075
25.502
24.9222
24.3355
23.7418
23.1411
22.5333
21.9183
21.2961
20.6665
20.0294
19.3848
18.7325
18.0726
17.4048
16.7291
16.0453
15.3534
14.6532
13.9447
13.2277
12.502
11.7676
11.0243
10.2721
9.51064
8.73994
7.95982
7.17015
6.37075
5.56149
4.74221
3.91275
3.07295
2.22263
1.36163
0.489766
-0.39313
-1.28724
-2.19276
-3.10987
-4.03877
-4.97966
-5.93274
-6.89821
-7.87629
-8.8672
-9.87114
-10.8884
-11.9191
-12.9636
-14.022
-15.0947
-16.1818
-17.2837
-18.4006
-19.5328
-20.6805
-21.844
-23.0237
-24.2197
-25.4325
-26.6623
-27.9095
-29.1743
-30.457
-31.7581
-33.0779
-34.4167
-35.7749
-37.1528
-38.5509
-39.9694
-41.409
-42.8698
-44.3523
-45.8571
-47.3843
-48.9346
-50.5082
-52.1057
-53.7274
-55.3739
-57.0456
-58.7428
-60.4662
-62.2161
-63.993
-65.7975
-67.6299
-69.4908
-71.3806
-73.2999
-75.249
-77.2283
-79.2384
-81.2796
-83.3524
-85.4569
-87.5936
-89.7626
-91.9642
-94.1983
-96.4651
-98.7643
-101.096
-103.459
-105.854
-108.279
-110.734
-113.217
-115.726
-118.26
-120.816
-123.391
-125.981
-128.584
-131.193
-133.804
-136.411
-139.007
-141.584
-144.134
-146.647
-149.116
-151.528
-153.874
-156.145
-158.329
-160.418
-162.404
-164.281
48.4964
48.4823
48.4538
48.4121
48.3582
48.2921
48.2137
48.123
48.0203
47.9058
47.7795
47.6417
47.4927
47.3326
47.1615
46.9797
46.7874
46.5849
46.3725
46.1501
45.9181
45.6766
45.4259
45.1663
44.8979
44.621
44.3356
44.0418
43.74
43.4302
43.1126
42.7874
42.4548
42.1148
41.7677
41.4134
41.052
40.6837
40.3086
39.9267
39.5382
39.1431
38.7415
38.3335
37.9191
37.4984
37.0713
36.6379
36.1982
35.7523
35.3002
34.8418
34.3773
33.9065
33.4296
32.9465
32.4571
31.9615
31.4597
30.9516
30.4371
29.9163
29.3891
28.8555
28.3154
27.7688
27.2157
26.6559
26.0894
25.5163
24.9363
24.3494
23.7557
23.1548
22.5469
21.9319
21.3095
20.6799
20.0427
19.3981
18.7458
18.0859
17.4181
16.7423
16.0586
15.3667
14.6666
13.9581
13.2411
12.5155
11.7811
11.0379
10.2857
9.52438
8.75378
7.97376
7.18418
6.3849
5.57575
4.75659
3.92725
3.08757
2.23739
1.37652
0.504802
-0.377951
-1.27191
-2.17728
-3.09424
-4.02298
-4.96371
-5.91663
-6.88194
-7.85985
-8.85059
-9.85437
-10.8714
-11.902
-12.9463
-14.0045
-15.077
-16.164
-17.2657
-18.3824
-19.5144
-20.6619
-21.8252
-23.0047
-24.2006
-25.4131
-26.6428
-27.8897
-29.1543
-30.4369
-31.7378
-33.0573
-34.396
-35.7539
-37.1317
-38.5295
-39.9479
-41.3873
-42.8479
-44.3303
-45.8348
-47.3619
-48.912
-50.4855
-52.0828
-53.7044
-55.3508
-57.0224
-58.7196
-60.4429
-62.1928
-63.9698
-65.7744
-67.607
-69.4681
-71.3582
-73.2777
-75.2272
-77.207
-79.2176
-81.2594
-83.3328
-85.4381
-87.5758
-89.7459
-91.9487
-94.1843
-96.4528
-98.754
-101.088
-103.454
-105.852
-108.28
-110.739
-113.226
-115.741
-118.28
-120.843
-123.425
-126.024
-128.635
-131.254
-133.876
-136.494
-139.102
-141.692
-144.255
-146.782
-149.264
-151.689
-154.048
-156.329
-158.523
-160.62
-162.611
-164.491
48.6268
48.6116
48.5816
48.5385
48.483
48.4151
48.3346
48.2417
48.1366
48.0196
47.8907
47.7502
47.5984
47.4354
47.2614
47.0766
46.8813
46.6758
46.4603
46.2349
45.9999
45.7555
45.5019
45.2394
44.9682
44.6885
44.4005
44.1042
43.7998
43.4875
43.1676
42.8401
42.5053
42.1633
41.8141
41.4579
41.0947
40.7246
40.3478
39.9643
39.5743
39.1777
38.7748
38.3655
37.9498
37.5279
37.0997
36.6653
36.2246
35.7778
35.3248
34.8656
34.4003
33.9288
33.4512
32.9675
32.4775
31.9814
31.4791
30.9705
30.4556
29.9344
29.4068
28.8729
28.3325
27.7856
27.2321
26.6721
26.1055
25.5321
24.9519
24.3649
23.771
23.1701
22.5621
21.9469
21.3245
20.6947
20.0576
19.4129
18.7606
18.1006
17.4328
16.7571
16.0734
15.3815
14.6814
13.9729
13.256
12.5304
11.7962
11.053
10.3009
9.53967
8.76916
7.98924
7.19977
6.4006
5.59157
4.77254
3.94333
3.1038
2.25375
1.39304
0.521473
-0.361118
-1.25492
-2.16011
-3.0769
-4.00546
-4.94601
-5.89874
-6.86386
-7.84158
-8.83212
-9.8357
-10.8525
-11.8829
-12.927
-13.985
-15.0573
-16.1441
-17.2455
-18.362
-19.4938
-20.6411
-21.8042
-22.9834
-24.1791
-25.3914
-26.6208
-27.8675
-29.1319
-30.4143
-31.7149
-33.0343
-34.3727
-35.7305
-37.108
-38.5056
-39.9238
-41.3629
-42.8233
-44.3055
-45.8098
-47.3367
-48.8866
-50.4599
-52.0571
-53.6785
-55.3248
-56.9963
-58.6934
-60.4167
-62.1667
-63.9438
-65.7484
-67.5812
-69.4425
-71.3329
-73.2527
-75.2026
-77.1829
-79.194
-81.2365
-83.3106
-85.4168
-87.5555
-89.7268
-91.931
-94.1682
-96.4386
-98.742
-101.078
-103.447
-105.849
-108.281
-110.744
-113.236
-115.756
-118.302
-120.872
-123.462
-126.07
-128.691
-131.321
-133.955
-136.586
-139.208
-141.812
-144.39
-146.932
-149.429
-151.869
-154.242
-156.536
-158.74
-160.846
-162.843
-164.726
48.7713
48.7548
48.7231
48.6783
48.621
48.551
48.4683
48.3729
48.2652
48.1453
48.0135
47.87
47.715
47.5488
47.3715
47.1834
46.9847
46.7758
46.557
46.3283
46.0899
45.8422
45.5854
45.3197
45.0455
44.7627
44.4717
44.1725
43.8653
43.5504
43.2279
42.8979
42.5607
42.2163
41.8649
41.5066
41.1413
40.7693
40.3907
40.0054
39.6137
39.2156
38.8111
38.4004
37.9834
37.5602
37.1308
36.6952
36.2535
35.8057
35.3517
34.8916
34.4255
33.9533
33.4749
32.9905
32.4999
32.0032
31.5003
30.9912
30.4758
29.9542
29.4262
28.8919
28.3511
27.8039
27.2502
26.6899
26.123
25.5495
24.9691
24.3819
23.7879
23.1868
22.5787
21.9634
21.3409
20.7111
20.0739
19.4292
18.7768
18.1168
17.449
16.7733
16.0896
15.3978
14.6977
13.9893
13.2724
12.5469
11.8127
11.0696
10.3176
9.5564
8.78598
8.00616
7.21679
6.41772
5.60881
4.78989
3.96081
3.1214
2.27149
1.41091
0.539492
-0.342949
-1.23659
-2.14163
-3.05825
-3.98664
-4.92701
-5.87955
-6.84449
-7.82201
-8.81236
-9.81573
-10.8324
-11.8625
-12.9064
-13.9642
-15.0363
-16.1228
-17.2241
-18.3403
-19.4718
-20.6189
-21.7818
-22.9608
-24.1562
-25.3683
-26.5974
-27.8439
-29.108
-30.3901
-31.6905
-33.0096
-34.3478
-35.7053
-37.0826
-38.48
-39.8979
-41.3368
-42.797
-44.2789
-45.783
-47.3096
-48.8593
-50.4324
-52.0294
-53.6507
-55.2968
-56.9682
-58.6653
-60.3885
-62.1385
-63.9155
-65.7203
-67.5532
-69.4146
-71.3052
-73.2254
-75.1756
-77.1563
-79.168
-81.2111
-83.2861
-85.3932
-87.5329
-89.7055
-91.9112
-94.1502
-96.4226
-98.7284
-101.067
-103.44
-105.844
-108.281
-110.749
-113.247
-115.773
-118.326
-120.903
-123.502
-126.12
-128.752
-131.394
-134.041
-136.686
-139.323
-141.943
-144.537
-147.097
-149.61
-152.067
-154.456
-156.764
-158.981
-161.096
-163.1
-164.987
48.9299
48.9121
48.8786
48.8319
48.7726
48.7003
48.615
48.5168
48.4061
48.2832
48.1481
48.0011
47.8426
47.6728
47.4919
47.3001
47.0977
46.8851
46.6625
46.4301
46.1881
45.9368
45.6764
45.4072
45.1295
44.8435
44.5492
44.2468
43.9366
43.6187
43.2933
42.9606
42.6208
42.2739
41.9201
41.5594
41.192
40.8179
40.4372
40.05
39.6565
39.2566
38.8505
38.4383
38.0198
37.5952
37.1645
36.7277
36.2848
35.8359
35.3809
34.9199
34.4528
33.9798
33.5006
33.0155
32.5242
32.0268
31.5234
31.0137
30.4978
29.9757
29.4473
28.9126
28.3714
27.8239
27.2699
26.7093
26.1422
25.5684
24.9878
24.4004
23.8062
23.205
22.5968
21.9814
21.3588
20.7289
20.0916
19.4469
18.7945
18.1345
17.4667
16.791
16.1073
15.4155
14.7154
14.0071
13.2902
12.5648
11.8306
11.0876
10.3357
9.57457
8.80424
8.02451
7.23523
6.43627
5.62746
4.80866
3.97969
3.1404
2.29062
1.43018
0.558897
-0.323399
-1.2169
-2.12178
-3.03823
-3.96646
-4.90665
-5.85902
-6.82378
-7.80112
-8.79127
-9.79445
-10.8109
-11.8408
-12.8845
-13.9421
-15.0139
-16.1002
-17.2012
-18.3173
-19.4485
-20.5953
-21.758
-22.9367
-24.1319
-25.3438
-26.5726
-27.8188
-29.0827
-30.3645
-31.6647
-32.9835
-34.3214
-35.6786
-37.0557
-38.4528
-39.8705
-41.3091
-42.769
-44.2507
-45.7545
-47.2809
-48.8304
-50.4033
-52
-53.6211
-55.267
-56.9382
-58.6352
-60.3583
-62.1081
-63.8852
-65.6899
-67.5228
-69.3844
-71.2751
-73.1955
-75.146
-77.1272
-79.1394
-81.1832
-83.2589
-85.367
-87.5079
-89.6818
-91.8891
-94.13
-96.4046
-98.7129
-101.055
-103.431
-105.839
-108.28
-110.753
-113.257
-115.79
-118.351
-120.937
-123.545
-126.174
-128.818
-131.473
-134.134
-136.795
-139.448
-142.085
-144.698
-147.277
-149.809
-152.284
-154.69
-157.014
-159.245
-161.371
-163.382
-165.274
49.1032
49.0838
49.0483
48.9995
48.9379
48.8631
48.775
48.6737
48.5597
48.4333
48.2946
48.1439
47.9815
47.8077
47.6227
47.4268
47.2203
47.0036
46.7769
46.5404
46.2944
46.0391
45.7748
45.5018
45.2204
44.9307
44.6329
44.3271
44.0135
43.6924
43.364
43.0283
42.6856
42.336
41.9795
41.6163
41.2465
40.8701
40.4873
40.098
39.7025
39.3008
38.893
38.479
38.059
37.6329
37.2008
36.7627
36.3186
35.8684
35.4124
34.9503
34.4823
34.0083
33.5283
33.0424
32.5504
32.0523
31.5482
31.038
30.5215
29.9989
29.47
28.9349
28.3934
27.8455
27.2911
26.7303
26.1628
25.5888
25.008
24.4205
23.826
23.2247
22.6163
22.0008
21.3782
20.7482
20.1109
19.4661
18.8137
18.1537
17.4859
16.8102
16.1265
15.4347
14.7347
14.0264
13.3096
12.5843
11.8502
11.1073
10.3554
9.59444
8.82422
8.04461
7.25546
6.45663
5.64795
4.82929
4.00047
3.16133
2.3117
1.45142
0.580309
-0.301815
-1.19514
-2.09984
-3.0161
-3.94414
-4.88414
-5.8363
-6.80085
-7.77798
-8.76791
-9.77087
-10.7871
-11.8168
-12.8602
-13.9176
-14.9892
-16.0752
-17.176
-18.2918
-19.4228
-20.5694
-21.7317
-22.9102
-24.1051
-25.3167
-26.5453
-27.7912
-29.0548
-30.3364
-31.6363
-32.9548
-34.2924
-35.6494
-37.0261
-38.423
-39.8404
-41.2787
-42.7384
-44.2198
-45.7234
-47.2495
-48.7987
-50.3713
-51.9679
-53.5887
-55.2344
-56.9054
-58.6022
-60.3252
-62.0749
-63.8519
-65.6566
-67.4895
-69.3512
-71.2421
-73.1627
-75.1136
-77.0952
-79.108
-81.1525
-83.2291
-85.3382
-87.4803
-89.6557
-91.8648
-94.1076
-96.3846
-98.6957
-101.041
-103.42
-105.833
-108.279
-110.758
-113.268
-115.808
-118.376
-120.972
-123.591
-126.231
-128.887
-131.557
-134.234
-136.911
-139.583
-142.24
-144.873
-147.472
-150.025
-152.521
-154.946
-157.288
-159.534
-161.672
-163.692
-165.588
49.2914
49.2703
49.2326
49.1815
49.1175
49.0398
48.9485
48.8438
48.7262
48.5959
48.4532
48.2983
48.1316
47.9534
47.764
47.5636
47.3526
47.1314
46.9002
46.6593
46.4088
46.1492
45.8806
45.6035
45.318
45.0243
44.7226
44.4132
44.096
43.7715
43.4396
43.1008
42.755
42.4024
42.0431
41.6772
41.3048
40.926
40.5408
40.1494
39.7518
39.3481
38.9383
38.5226
38.1009
37.6732
37.2396
36.8001
36.3546
35.9033
35.446
34.9829
34.5138
34.0389
33.558
33.0712
32.5784
32.0796
31.5748
31.0639
30.5469
30.0238
29.4944
28.9588
28.4169
27.8686
27.3139
26.7527
26.185
25.6107
25.0297
24.442
23.8474
23.2459
22.6374
22.0218
21.399
20.769
20.1316
19.4868
18.8344
18.1743
17.5065
16.8309
16.1472
15.4555
14.7556
14.0473
13.3306
12.6054
11.8714
11.1286
10.3769
9.61603
8.84594
8.06646
7.27747
6.47879
5.67028
4.85178
4.02313
3.18417
2.33472
1.47463
0.603702
-0.278226
-1.17134
-2.07584
-2.9919
-3.91972
-4.8595
-5.81144
-6.77576
-7.75266
-8.74235
-9.74507
-10.761
-11.7905
-12.8337
-13.8908
-14.9621
-16.0479
-17.1484
-18.264
-19.3947
-20.541
-21.7031
-22.8813
-24.0759
-25.2872
-26.5156
-27.7612
-29.0245
-30.3058
-31.6054
-32.9237
-34.261
-35.6177
-36.9941
-38.3907
-39.8078
-41.2458
-42.7052
-44.1863
-45.6896
-47.2155
-48.7644
-50.3367
-51.933
-53.5537
-55.1992
-56.87
-58.5665
-60.2894
-62.039
-63.8159
-65.6206
-67.4536
-69.3154
-71.2065
-73.1274
-75.0787
-77.0607
-79.0741
-81.1193
-83.1967
-85.307
-87.4503
-89.6273
-91.8381
-94.0831
-96.3625
-98.6765
-101.025
-103.408
-105.825
-108.277
-110.761
-113.278
-115.826
-118.403
-121.008
-123.638
-126.291
-128.961
-131.646
-134.339
-137.035
-139.727
-142.405
-145.06
-147.682
-150.258
-152.776
-155.223
-157.585
-159.848
-162
-164.029
-165.93
49.495
49.472
49.4318
49.3782
49.3114
49.2307
49.1358
49.0274
48.9057
48.7712
48.624
48.4646
48.2932
48.1102
47.9159
47.7106
47.4946
47.2684
47.0323
46.7865
46.5313
46.267
45.9938
45.7121
45.4222
45.1243
44.8185
44.505
44.184
43.8557
43.5203
43.1779
42.8288
42.4731
42.1108
41.742
41.3669
40.9854
40.5978
40.204
39.8041
39.3983
38.9866
38.5689
38.1454
37.7161
37.2809
36.8398
36.393
35.9403
35.4818
35.0175
34.5473
34.0714
33.5896
33.1019
32.6083
32.1087
31.6032
31.0917
30.574
30.0503
29.5204
28.9843
28.442
27.8933
27.3382
26.7767
26.2087
25.6341
25.0529
24.4649
23.8702
23.2685
22.6598
22.0441
21.4213
20.7912
20.1538
19.5089
18.8565
18.1964
17.5287
16.853
16.1694
15.4778
14.7779
14.0697
13.3531
12.6279
11.8941
11.1514
10.3998
9.63907
8.86912
8.08979
7.30094
6.50242
5.69408
4.87575
4.04727
3.20849
2.35923
1.49933
0.6286
-0.253128
-1.14604
-2.05032
-2.96617
-3.89377
-4.83332
-5.78503
-6.74911
-7.72577
-8.71522
-9.71769
-10.7334
-11.7626
-12.8055
-13.8624
-14.9334
-16.0189
-17.1192
-18.2344
-19.3649
-20.5109
-21.6727
-22.8506
-24.0449
-25.2559
-26.4839
-27.7293
-28.9923
-30.2732
-31.5725
-32.8905
-34.2275
-35.5838
-36.96
-38.3562
-39.773
-41.2107
-42.6698
-44.1506
-45.6536
-47.1792
-48.7278
-50.2999
-51.8959
-53.5163
-55.1616
-56.8322
-58.5286
-60.2513
-62.0008
-63.7776
-65.5822
-67.4152
-69.277
-71.1683
-73.0894
-75.041
-77.0235
-79.0374
-81.0833
-83.1617
-85.2731
-87.4178
-89.5963
-91.809
-94.0562
-96.3382
-98.6552
-101.007
-103.394
-105.816
-108.273
-110.764
-113.288
-115.844
-118.43
-121.046
-123.688
-126.353
-129.039
-131.74
-134.451
-137.167
-139.88
-142.581
-145.26
-147.907
-150.508
-153.052
-155.523
-157.906
-160.188
-162.356
-164.395
-166.302
49.7145
49.6894
49.6465
49.5901
49.5203
49.436
49.3373
49.2247
49.0986
48.9594
48.8074
48.6429
48.4663
48.2781
48.0784
47.8677
47.6464
47.4148
47.1734
46.9223
46.6619
46.3924
46.1143
45.8277
45.5331
45.2305
44.9203
44.6025
44.2773
43.945
43.6057
43.2597
42.9071
42.548
42.1825
41.8107
41.4326
41.0484
40.658
40.2618
39.8595
39.4515
39.0376
38.618
38.1926
37.7614
37.3245
36.8819
36.4336
35.9795
35.5197
35.0541
34.5829
34.1058
33.623
33.1344
32.6399
32.1395
31.6333
31.121
30.6028
30.0785
29.548
29.0114
28.4686
27.9195
27.3641
26.8022
26.2339
25.659
25.0775
24.4894
23.8944
23.2926
22.6838
22.0679
21.445
20.8148
20.1773
19.5324
18.88
18.2199
17.5521
16.8765
16.193
15.5014
14.8016
14.0935
13.3769
12.6519
11.9181
11.1755
10.424
9.66344
8.89363
8.11444
7.32575
6.52738
5.7192
4.90104
4.07274
3.23414
2.38507
1.52536
0.654834
-0.22669
-1.11939
-2.02345
-2.93907
-3.86644
-4.80576
-5.75723
-6.72106
-7.69746
-8.68665
-9.68885
-10.7043
-11.7332
-12.7758
-13.8324
-14.9032
-15.9884
-17.0883
-18.2032
-19.3334
-20.4791
-21.6406
-22.8181
-24.0121
-25.2228
-26.4505
-27.6955
-28.9581
-30.2388
-31.5377
-32.8553
-34.1919
-35.548
-36.9238
-38.3197
-39.7361
-41.1735
-42.6322
-44.1127
-45.6154
-47.1407
-48.689
-50.2608
-51.8565
-53.4767
-55.1217
-56.792
-58.4882
-60.2107
-61.96
-63.7367
-65.5412
-67.3742
-69.236
-71.1274
-73.0487
-75.0006
-76.9836
-78.9981
-81.0448
-83.1241
-85.2366
-87.3827
-89.5629
-91.7775
-94.027
-96.3117
-98.6318
-100.988
-103.379
-105.806
-108.268
-110.765
-113.297
-115.861
-118.458
-121.084
-123.739
-126.418
-129.119
-131.838
-134.569
-137.306
-140.042
-142.767
-145.473
-148.147
-150.776
-153.347
-155.844
-158.252
-160.555
-162.739
-164.791
-166.704
49.9502
49.9229
49.877
49.8176
49.7444
49.6564
49.5534
49.4362
49.3052
49.1609
49.0035
48.8335
48.6512
48.4572
48.2517
48.0351
47.8079
47.5705
47.3233
47.0665
46.8005
46.5255
46.2419
45.9502
45.6504
45.3429
45.0279
44.7055
44.3759
44.0393
43.696
43.346
42.9897
42.627
42.258
41.883
41.5018
41.1146
40.7215
40.3226
39.9179
39.5074
39.0913
38.6696
38.2422
37.8092
37.3705
36.9262
36.4763
36.0208
35.5596
35.0928
34.6203
34.1421
33.6583
33.1686
32.6733
32.1721
31.665
31.1521
30.6331
30.1082
29.5772
29.0401
28.4968
27.9472
27.3914
26.8292
26.2605
25.6854
25.1036
24.5152
23.9201
23.318
22.7091
22.0932
21.4701
20.8398
20.2023
19.5573
18.9049
18.2448
17.577
16.9014
16.2179
15.5263
14.8266
14.1186
13.4021
12.6772
11.9435
11.2011
10.4497
9.68923
8.91955
8.14052
7.35199
6.55379
5.74578
4.92781
4.0997
3.26129
2.41243
1.55292
0.682609