/*--------------------------------*- C++ -*----------------------------------*\
  =========                 |
  \\      /  F ield         | OpenFOAM: The Open Source CFD Toolbox
   \\    /   O peration     | Website:  https://openfoam.org
    \\  /    A nd           | Version:  8
     \\/     M anipulation  |
\*---------------------------------------------------------------------------*/
FoamFile
{
    version     2.0;
    format      ascii;
    class       surfaceScalarField;
    location    "101";
    object      phi;
}
// * * * * * * * * * * * * * * * * * * * * * * * * * * * * * * * * * * * * * //

dimensions      [0 3 -1 0 0 0 0];

internalField   nonuniform List<scalar> 
129250
(
0.1053
0.000299804
3.25024e-09
0.105013
0.000287501
1.23087e-08
0.104737
0.000275361
8.82844e-09
0.104474
0.000263384
8.29106e-09
0.104222
0.000251575
7.6036e-09
0.103982
0.000239949
8.87855e-09
0.103754
0.000228524
8.4317e-09
0.103537
0.000217318
7.89755e-09
0.10333
0.000206342
7.45194e-09
0.103135
0.00019561
7.00343e-09
0.102949
0.000185132
6.48049e-09
0.102775
0.000174918
5.96512e-09
0.10261
0.000164978
5.84132e-09
0.102454
0.00015532
6.22575e-09
0.102308
0.000145949
6.8273e-09
0.102171
0.00013687
7.2006e-09
0.102043
0.000128086
7.30928e-09
0.101924
0.000119601
7.48653e-09
0.101812
0.000111415
8.15084e-09
0.101709
0.000103529
9.24489e-09
0.101613
9.59431e-05
1.04187e-08
0.101524
8.86537e-05
1.11527e-08
0.101442
8.1658e-05
1.141e-08
0.101368
7.49526e-05
1.13507e-08
0.101299
6.85331e-05
1.15409e-08
0.101237
6.23953e-05
1.21193e-08
0.10118
5.65333e-05
1.32357e-08
0.101129
5.09413e-05
1.44302e-08
0.101083
4.56121e-05
1.55696e-08
0.101043
4.05385e-05
1.61882e-08
0.101007
3.57129e-05
1.64958e-08
0.100976
3.11279e-05
1.64446e-08
0.100949
2.67757e-05
1.66031e-08
0.100927
2.26487e-05
1.69226e-08
0.100908
1.87389e-05
1.78065e-08
0.100893
1.50386e-05
1.87904e-08
0.100881
1.15393e-05
2.01318e-08
0.100873
8.23321e-06
2.11589e-08
0.100868
5.11181e-06
2.22585e-08
0.100866
2.1676e-06
2.27723e-08
0.100866
-6.07733e-07
2.33588e-08
0.100869
-3.22119e-06
2.34681e-08
0.100875
-5.68066e-06
2.39743e-08
0.100883
-7.99268e-06
2.42537e-08
0.100893
-1.01648e-05
2.51733e-08
0.100905
-1.22032e-05
2.58987e-08
0.100919
-1.41151e-05
2.72846e-08
0.100935
-1.59061e-05
2.831e-08
0.100953
-1.75833e-05
2.98804e-08
0.100972
-1.91518e-05
3.08726e-08
0.100993
-2.06182e-05
3.23447e-08
0.101015
-2.19873e-05
3.31746e-08
0.101038
-2.32649e-05
3.45151e-08
0.101062
-2.44553e-05
3.5275e-08
0.101088
-2.55642e-05
3.6639e-08
0.101114
-2.65953e-05
3.75667e-08
0.101142
-2.75535e-05
3.91485e-08
0.10117
-2.84425e-05
4.03742e-08
0.101199
-2.92667e-05
4.22388e-08
0.101229
-3.00295e-05
4.38072e-08
0.10126
-3.07348e-05
4.59741e-08
0.101291
-3.13857e-05
4.78099e-08
0.101323
-3.19858e-05
5.02262e-08
0.101356
-3.25378e-05
5.23031e-08
0.101389
-3.30451e-05
5.50249e-08
0.101422
-3.35099e-05
5.73971e-08
0.101456
-3.39355e-05
6.05894e-08
0.10149
-3.43236e-05
6.34904e-08
0.101525
-3.46772e-05
6.74931e-08
0.10156
-3.49979e-05
7.12402e-08
0.101595
-3.52885e-05
7.63914e-08
0.101631
-3.55501e-05
8.13013e-08
0.101666
-3.57856e-05
8.7899e-08
0.101702
-3.59955e-05
9.41401e-08
0.101738
-3.61827e-05
1.0214e-07
0.101774
-3.63473e-05
1.09619e-07
0.101811
-3.64921e-05
1.18657e-07
0.101847
-3.6617e-05
1.26955e-07
0.101884
-3.67245e-05
1.36273e-07
0.101921
-3.68142e-05
1.44658e-07
0.101957
-3.68886e-05
1.53186e-07
0.101994
-3.69472e-05
1.60576e-07
0.102031
-3.69924e-05
1.67064e-07
0.102068
-3.70232e-05
1.72338e-07
0.102105
-3.70424e-05
1.75729e-07
0.102142
-3.70485e-05
1.77905e-07
0.102178
-3.70446e-05
1.7743e-07
0.102215
-3.70289e-05
1.75838e-07
0.102252
-3.70045e-05
1.71173e-07
0.102289
-3.69694e-05
1.65645e-07
0.102326
-3.69268e-05
1.56871e-07
0.102362
-3.68745e-05
1.47619e-07
0.102399
-3.68155e-05
1.35189e-07
0.102436
-3.67479e-05
1.22795e-07
0.102472
-3.66739e-05
1.07377e-07
0.102509
-3.65924e-05
9.24893e-08
0.102545
-3.65048e-05
7.50213e-08
0.102582
-3.64107e-05
5.83563e-08
0.102618
-3.63108e-05
3.98542e-08
0.102654
-3.62053e-05
2.20663e-08
0.10269
-3.60946e-05
3.66409e-09
0.102726
-3.59795e-05
-1.4172e-08
0.102762
-3.58601e-05
-3.13292e-08
0.102798
-3.57377e-05
-4.79475e-08
0.102834
-3.56117e-05
-6.28196e-08
0.102869
-3.54847e-05
-7.66301e-08
0.102905
-3.53549e-05
-8.82614e-08
0.10294
-3.52259e-05
-9.79393e-08
0.102975
-3.50947e-05
-1.05615e-07
0.10301
-3.49656e-05
-1.10299e-07
0.103045
-3.48353e-05
-1.13533e-07
0.10308
-3.47075e-05
-1.13178e-07
0.103115
-3.45793e-05
-1.1195e-07
0.103149
-3.44533e-05
-1.07119e-07
0.103184
-3.43275e-05
-1.01563e-07
0.103218
-3.42033e-05
-9.31493e-08
0.103252
-3.40791e-05
-8.38822e-08
0.103286
-3.39562e-05
-7.28929e-08
0.10332
-3.3832e-05
-6.09897e-08
0.103354
-3.37089e-05
-4.86978e-08
0.103387
-3.35835e-05
-3.54062e-08
0.103421
-3.3459e-05
-2.25169e-08
0.103454
-3.33307e-05
-9.23582e-09
0.103487
-3.32027e-05
3.13497e-09
0.103521
-3.30702e-05
1.50921e-08
0.103553
-3.29374e-05
2.56355e-08
0.103586
-3.27999e-05
3.52606e-08
0.103619
-3.26611e-05
4.24642e-08
0.103651
-3.25177e-05
4.85371e-08
0.103684
-3.23717e-05
5.11896e-08
0.103716
-3.22215e-05
5.26936e-08
0.103748
-3.20678e-05
5.03206e-08
0.10378
-3.19097e-05
4.67154e-08
0.103811
-3.1748e-05
4.01418e-08
0.103843
-3.15812e-05
3.20005e-08
0.103874
-3.14099e-05
2.24754e-08
0.103906
-3.12331e-05
1.14034e-08
0.103937
-3.10511e-05
4.50934e-10
0.103967
-3.08637e-05
-1.08402e-08
0.103998
-3.0671e-05
-2.11397e-08
0.104029
-3.0472e-05
-3.03798e-08
0.104059
-3.02667e-05
-4.00054e-08
0.104089
-3.00542e-05
-4.763e-08
0.104119
-2.98361e-05
-5.62544e-08
0.104149
-2.96099e-05
-6.32265e-08
0.104178
-2.93758e-05
-7.16176e-08
0.104208
-2.91325e-05
-7.92168e-08
0.104237
-2.88773e-05
-8.77156e-08
0.104265
-2.86103e-05
-9.57172e-08
0.104294
-2.8326e-05
-1.04807e-07
0.104322
-2.80278e-05
-1.10889e-07
0.10435
-2.77061e-05
-1.18038e-07
0.104377
-2.73676e-05
-1.20034e-07
0.104404
-2.70028e-05
-1.19887e-07
0.104431
-2.66205e-05
-1.12451e-07
0.104457
-2.61957e-05
-1.0902e-07
0.104483
-2.57399e-05
-1.06044e-07
0.104508
-2.5243e-05
-1.10765e-07
0.104533
-2.46988e-05
-1.27292e-07
0.104557
-2.40998e-05
-1.45531e-07
0.104581
-2.34517e-05
-1.55954e-07
0.104604
-2.27284e-05
-1.80888e-07
0.104626
-2.19309e-05
-1.96366e-07
0.104647
-2.10415e-05
-2.13321e-07
0.104668
-2.00646e-05
-2.20715e-07
0.104687
-1.89764e-05
-2.33847e-07
0.104705
-1.77665e-05
-2.43239e-07
0.104721
-1.64219e-05
-2.50552e-07
0.104737
-1.49267e-05
-2.48195e-07
0.10475
-1.32713e-05
-2.34722e-07
0.104762
-1.14243e-05
-2.11824e-07
0.104771
-9.37208e-06
-1.75575e-07
0.104778
-7.06965e-06
-1.3367e-07
0.104783
-4.49261e-06
-8.1921e-08
0.104785
-1.59087e-06
-2.69612e-08
0.104783
1.67949e-06
2.96746e-08
0.104777
5.36498e-06
8.788e-08
0.104768
9.53421e-06
1.39505e-07
0.104753
1.42311e-05
1.85716e-07
0.104734
1.95397e-05
2.22984e-07
0.104708
2.55144e-05
2.40304e-07
0.104675
3.22389e-05
2.53176e-07
0.104635
3.97877e-05
2.36185e-07
0.104587
4.82382e-05
2.18917e-07
0.104529
5.76818e-05
1.69851e-07
0.104461
6.81833e-05
1.33893e-07
0.104381
7.98557e-05
5.07945e-08
0.104288
9.27223e-05
2.01409e-08
0.104181
0.000106916
-7.83539e-08
0.104059
0.000122434
-1.14686e-07
0.10392
0.000139338
-1.73891e-07
0.103762
0.000157687
-2.34614e-07
0.103585
0.000177384
-2.62433e-07
0.103387
0.00019846
-2.89908e-07
0.103166
0.000220816
-3.16515e-07
0.102922
0.0002444
-3.74303e-07
0.102654
0.000268891
-2.92353e-07
0.10236
0.000294237
-2.02753e-07
0.10204
0.000320153
-2.00929e-07
0.000346901
-1.63715e-07
0.101693
0.1053
0.000599602
0.105013
0.000574982
0.104737
0.000550678
0.104474
0.000526703
0.104223
0.000503066
0.103983
0.000479795
0.103754
0.00045693
0.103537
0.000434501
0.103331
0.000412537
0.103136
0.000391061
0.102951
0.000370095
0.102776
0.00034966
0.102611
0.000329774
0.102456
0.000310451
0.10231
0.000291704
0.102173
0.000273543
0.102046
0.000255975
0.101926
0.000239004
0.101815
0.000222633
0.101712
0.000206863
0.101616
0.000191693
0.101527
0.000177117
0.101446
0.000163131
0.101371
0.000149726
0.101303
0.000136893
0.101241
0.000124624
0.101184
0.000112907
0.101133
0.000101729
0.101088
9.10781e-05
0.101048
8.09385e-05
0.101012
7.12956e-05
0.100981
6.21342e-05
0.100954
5.34387e-05
0.100932
4.51933e-05
0.100913
3.73822e-05
0.100898
2.99893e-05
0.100887
2.29985e-05
0.100879
1.63937e-05
0.100874
1.01588e-05
0.100871
4.27779e-06
0.100872
-1.26484e-06
0.100875
-6.48429e-06
0.100881
-1.13953e-05
0.100889
-1.60123e-05
0.100899
-2.03493e-05
0.100911
-2.44197e-05
0.100926
-2.82368e-05
0.100942
-3.18133e-05
0.100959
-3.51615e-05
0.100978
-3.82934e-05
0.100999
-4.12202e-05
0.101021
-4.39533e-05
0.101044
-4.65026e-05
0.101068
-4.88786e-05
0.101094
-5.10907e-05
0.101121
-5.31481e-05
0.101148
-5.50593e-05
0.101176
-5.6833e-05
0.101206
-5.84765e-05
0.101236
-5.9998e-05
0.101266
-6.14039e-05
0.101298
-6.27018e-05
0.101329
-6.38974e-05
0.101362
-6.49976e-05
0.101395
-6.60073e-05
0.101428
-6.69329e-05
0.101462
-6.77788e-05
0.101496
-6.85506e-05
0.101531
-6.92521e-05
0.101566
-6.98885e-05
0.101601
-7.0463e-05
0.101636
-7.09804e-05
0.101672
-7.14434e-05
0.101708
-7.18563e-05
0.101744
-7.22215e-05
0.10178
-7.2543e-05
0.101817
-7.28225e-05
0.101853
-7.30639e-05
0.10189
-7.32686e-05
0.101926
-7.344e-05
0.101963
-7.35795e-05
0.102
-7.369e-05
0.102036
-7.3773e-05
0.102073
-7.38307e-05
0.10211
-7.38649e-05
0.102147
-7.38766e-05
0.102184
-7.38688e-05
0.10222
-7.38409e-05
0.102257
-7.37965e-05
0.102294
-7.37338e-05
0.102331
-7.36572e-05
0.102367
-7.35638e-05
0.102404
-7.34583e-05
0.102441
-7.33371e-05
0.102477
-7.3205e-05
0.102514
-7.30582e-05
0.10255
-7.2901e-05
0.102586
-7.27305e-05
0.102623
-7.255e-05
0.102659
-7.23577e-05
0.102695
-7.21559e-05
0.102731
-7.19442e-05
0.102767
-7.17238e-05
0.102802
-7.14959e-05
0.102838
-7.12605e-05
0.102874
-7.10199e-05
0.102909
-7.07736e-05
0.102944
-7.05242e-05
0.10298
-7.02709e-05
0.103015
-7.00158e-05
0.10305
-6.97591e-05
0.103084
-6.9501e-05
0.103119
-6.92429e-05
0.103154
-6.89838e-05
0.103188
-6.87251e-05
0.103222
-6.8466e-05
0.103256
-6.82063e-05
0.10329
-6.79469e-05
0.103324
-6.76851e-05
0.103358
-6.74241e-05
0.103391
-6.71589e-05
0.103425
-6.68945e-05
0.103458
-6.66244e-05
0.103491
-6.6354e-05
0.103524
-6.60776e-05
0.103557
-6.57997e-05
0.10359
-6.55158e-05
0.103623
-6.5229e-05
0.103655
-6.49365e-05
0.103687
-6.46399e-05
0.103719
-6.43375e-05
0.103751
-6.40304e-05
0.103783
-6.37168e-05
0.103815
-6.33978e-05
0.103846
-6.30714e-05
0.103878
-6.27378e-05
0.103909
-6.23957e-05
0.10394
-6.20439e-05
0.103971
-6.16823e-05
0.104001
-6.13098e-05
0.104032
-6.09253e-05
0.104062
-6.05289e-05
0.104092
-6.01176e-05
0.104122
-5.96932e-05
0.104152
-5.92514e-05
0.104181
-5.87924e-05
0.10421
-5.83117e-05
0.104239
-5.78081e-05
0.104268
-5.72768e-05
0.104296
-5.67148e-05
0.104324
-5.61193e-05
0.104352
-5.54811e-05
0.10438
-5.48019e-05
0.104407
-5.40705e-05
0.104433
-5.32865e-05
0.104459
-5.24325e-05
0.104485
-5.15147e-05
0.10451
-5.05242e-05
0.104535
-4.9456e-05
0.104559
-4.82854e-05
0.104583
-4.70095e-05
0.104606
-4.55934e-05
0.104628
-4.40202e-05
0.104649
-4.22677e-05
0.104669
-4.03339e-05
0.104689
-3.81803e-05
0.104707
-3.57792e-05
0.104723
-3.31007e-05
0.104738
-3.01145e-05
0.104752
-2.67913e-05
0.104764
-2.30812e-05
0.104773
-1.8941e-05
0.10478
-1.43014e-05
0.104785
-9.09694e-06
0.104787
-3.24523e-06
0.104785
3.34678e-06
0.10478
1.07709e-05
0.10477
1.91478e-05
0.104756
2.85813e-05
0.104736
3.92145e-05
0.10471
5.11687e-05
0.104678
6.46059e-05
0.104638
7.96664e-05
0.10459
9.65267e-05
0.104532
0.000115342
0.104464
0.000136287
0.104384
0.00015953
0.104292
0.000185213
0.104185
0.000213495
0.104063
0.000244476
0.103924
0.000278243
0.103767
0.000314855
0.10359
0.000354257
0.103392
0.000396409
0.103172
0.00044114
0.102928
0.000488245
0.10266
0.000537333
0.102366
0.000588182
0.102046
0.000640057
0.000693618
0.101699
0.1053
0.000899379
0.105013
0.000862399
0.104738
0.000825891
0.104474
0.000789879
0.104223
0.000754376
0.103984
0.000719427
0.103755
0.000685088
0.103538
0.00065141
0.103333
0.00061843
0.103137
0.000586187
0.102953
0.000554712
0.102778
0.000524038
0.102614
0.000494189
0.102459
0.00046519
0.102314
0.000437058
0.102178
0.000409808
0.10205
0.000383451
0.101931
0.000357993
0.10182
0.000333438
0.101717
0.000309786
0.101622
0.000287036
0.101534
0.000265181
0.101453
0.000244212
0.101379
0.000224116
0.101311
0.000204882
0.101249
0.000186493
0.101193
0.000168933
0.101142
0.000152184
0.101097
0.000136224
0.101057
0.000121034
0.101022
0.000106588
0.100991
9.28655e-05
0.100965
7.98417e-05
0.100942
6.74933e-05
0.100924
5.5796e-05
0.100909
4.47259e-05
0.100898
3.42586e-05
0.10089
2.437e-05
0.100885
1.50358e-05
0.100883
6.23224e-06
0.100884
-2.06418e-06
0.100887
-9.8763e-06
0.100893
-1.72263e-05
0.100901
-2.41359e-05
0.100912
-3.06259e-05
0.100924
-3.67169e-05
0.100938
-4.24283e-05
0.100954
-4.77796e-05
0.100972
-5.27889e-05
0.100991
-5.74744e-05
0.101011
-6.18528e-05
0.101033
-6.59409e-05
0.101057
-6.97541e-05
0.101081
-7.33078e-05
0.101107
-7.6616e-05
0.101133
-7.96928e-05
0.101161
-8.25507e-05
0.101189
-8.52027e-05
0.101218
-8.766e-05
0.101248
-8.99344e-05
0.101279
-9.20361e-05
0.10131
-9.39759e-05
0.101342
-9.57628e-05
0.101374
-9.74066e-05
0.101407
-9.89152e-05
0.101441
-0.000100298
0.101474
-0.000101561
0.101509
-0.000102713
0.101543
-0.00010376
0.101578
-0.000104709
0.101613
-0.000105565
0.101648
-0.000106336
0.101684
-0.000107025
0.10172
-0.000107639
0.101756
-0.000108181
0.101792
-0.000108658
0.101828
-0.000109072
0.101864
-0.000109429
0.101901
-0.00010973
0.101937
-0.000109983
0.101974
-0.000110188
0.102011
-0.00011035
0.102047
-0.000110472
0.102084
-0.000110556
0.102121
-0.000110605
0.102158
-0.000110623
0.102194
-0.00011061
0.102231
-0.00011057
0.102268
-0.000110504
0.102304
-0.000110414
0.102341
-0.000110301
0.102378
-0.000110166
0.102414
-0.000110011
0.102451
-0.000109835
0.102487
-0.000109642
0.102524
-0.000109429
0.10256
-0.0001092
0.102596
-0.000108952
0.102632
-0.000108689
0.102668
-0.000108408
0.102704
-0.000108114
0.10274
-0.000107805
0.102776
-0.000107484
0.102811
-0.00010715
0.102847
-0.000106806
0.102882
-0.000106451
0.102918
-0.00010609
0.102953
-0.00010572
0.102988
-0.000105346
0.103023
-0.000104965
0.103058
-0.000104583
0.103092
-0.000104194
0.103127
-0.000103806
0.103161
-0.000103413
0.103196
-0.000103022
0.10323
-0.000102626
0.103264
-0.000102231
0.103298
-0.000101833
0.103332
-0.000101433
0.103365
-0.000101032
0.103399
-0.000100628
0.103432
-0.000100221
0.103465
-9.98103e-05
0.103498
-9.93961e-05
0.103531
-9.89774e-05
0.103564
-9.85538e-05
0.103597
-9.81252e-05
0.103629
-9.76905e-05
0.103661
-9.72504e-05
0.103694
-9.68037e-05
0.103726
-9.63507e-05
0.103757
-9.58904e-05
0.103789
-9.54227e-05
0.103821
-9.49465e-05
0.103852
-9.44615e-05
0.103883
-9.39657e-05
0.103914
-9.34586e-05
0.103945
-9.2937e-05
0.103976
-9.24013e-05
0.104007
-9.18496e-05
0.104037
-9.12804e-05
0.104067
-9.06938e-05
0.104097
-9.00851e-05
0.104127
-8.94558e-05
0.104156
-8.88005e-05
0.104186
-8.81186e-05
0.104215
-8.74041e-05
0.104244
-8.66551e-05
0.104272
-8.58643e-05
0.104301
-8.50279e-05
0.104329
-8.41385e-05
0.104356
-8.31881e-05
0.104384
-8.21725e-05
0.104411
-8.10807e-05
0.104437
-7.9895e-05
0.104463
-7.86106e-05
0.104489
-7.72313e-05
0.104514
-7.57516e-05
0.104539
-7.41612e-05
0.104563
-7.24269e-05
0.104587
-7.05314e-05
0.10461
-6.84367e-05
0.104632
-6.60989e-05
0.104653
-6.34944e-05
0.104673
-6.06123e-05
0.104692
-5.74069e-05
0.10471
-5.38312e-05
0.104727
-4.98334e-05
0.104742
-4.53749e-05
0.104756
-4.03954e-05
0.104768
-3.48381e-05
0.104777
-2.86165e-05
0.104785
-2.16531e-05
0.104789
-1.38274e-05
0.104791
-5.03956e-06
0.10479
4.86306e-06
0.104784
1.60082e-05
0.104775
2.85723e-05
0.104761
4.27191e-05
0.104741
5.86454e-05
0.104716
7.65511e-05
0.104684
9.66605e-05
0.104644
0.000119202
0.104597
0.000144425
0.104539
0.000172585
0.104472
0.000203923
0.104392
0.000238718
0.1043
0.000277171
0.104194
0.000319535
0.104073
0.000365953
0.103935
0.000416586
0.103778
0.000471461
0.103602
0.000530601
0.103404
0.000593852
0.103184
0.000660993
0.102941
0.000731721
0.102673
0.000805504
0.102379
0.000881954
0.102059
0.000959887
0.00104037
0.101712
0.1053
0.00119912
0.105013
0.00114972
0.104738
0.00110095
0.104475
0.00105284
0.104224
0.00100541
0.103985
0.000958734
0.103757
0.000912875
0.10354
0.000867901
0.103335
0.000823866
0.10314
0.000780819
0.102956
0.000738805
0.102782
0.000697864
0.102619
0.000658031
0.102464
0.000619337
0.10232
0.000581806
0.102184
0.000545458
0.102057
0.000510306
0.101939
0.000476358
0.101829
0.000443619
0.101726
0.000412091
0.101632
0.000381769
0.101544
0.000352644
0.101464
0.000324704
0.10139
0.000297932
0.101322
0.000272311
0.101261
0.000247821
0.101205
0.000224438
0.101156
0.000202137
0.101111
0.000180891
0.101071
0.000160671
0.101036
0.000141445
0.101006
0.000123184
0.10098
0.000105855
0.100958
8.94266e-05
0.10094
7.38661e-05
0.100926
5.91415e-05
0.100915
4.52203e-05
0.100907
3.207e-05
0.100902
1.96583e-05
0.100901
7.9533e-06
0.100902
-3.07638e-06
0.100905
-1.34613e-05
0.100911
-2.32311e-05
0.10092
-3.24147e-05
0.10093
-4.104e-05
0.100942
-4.91343e-05
0.100957
-5.67238e-05
0.100973
-6.3834e-05
0.10099
-7.04895e-05
0.10101
-7.67141e-05
0.10103
-8.25305e-05
0.101052
-8.79608e-05
0.101076
-9.30257e-05
0.1011
-9.77454e-05
0.101126
-0.000102139
0.101152
-0.000106225
0.10118
-0.00011002
0.101208
-0.000113541
0.101237
-0.000116803
0.101267
-0.000119822
0.101298
-0.000122612
0.101329
-0.000125187
0.101361
-0.000127558
0.101393
-0.000129739
0.101426
-0.000131741
0.101459
-0.000133575
0.101493
-0.00013525
0.101527
-0.000136778
0.101561
-0.000138165
0.101596
-0.000139423
0.101631
-0.000140558
0.101666
-0.000141579
0.101702
-0.000142491
0.101737
-0.000143304
0.101773
-0.000144021
0.101809
-0.000144651
0.101845
-0.000145198
0.101881
-0.000145669
0.101918
-0.000146068
0.101954
-0.000146401
0.101991
-0.000146671
0.102027
-0.000146884
0.102064
-0.000147043
0.1021
-0.000147154
0.102137
-0.000147218
0.102174
-0.000147239
0.10221
-0.000147221
0.102247
-0.000147166
0.102283
-0.000147077
0.10232
-0.000146956
0.102356
-0.000146804
0.102393
-0.000146623
0.102429
-0.000146415
0.102466
-0.000146181
0.102502
-0.000145922
0.102538
-0.000145639
0.102574
-0.000145333
0.10261
-0.000145005
0.102646
-0.000144655
0.102682
-0.000144285
0.102718
-0.000143897
0.102754
-0.000143489
0.102789
-0.000143066
0.102825
-0.000142626
0.10286
-0.000142173
0.102895
-0.000141706
0.10293
-0.00014123
0.102965
-0.000140742
0.103
-0.000140248
0.103035
-0.000139743
0.10307
-0.000139237
0.103104
-0.000138721
0.103139
-0.000138204
0.103173
-0.00013768
0.103207
-0.000137156
0.103241
-0.000136627
0.103275
-0.000136097
0.103309
-0.000135562
0.103342
-0.000135026
0.103376
-0.000134486
0.103409
-0.000133944
0.103442
-0.000133398
0.103475
-0.000132847
0.103508
-0.000132292
0.103541
-0.000131732
0.103574
-0.000131166
0.103606
-0.000130594
0.103638
-0.000130015
0.103671
-0.000129429
0.103703
-0.000128835
0.103734
-0.000128233
0.103766
-0.000127622
0.103798
-0.000127001
0.103829
-0.000126369
0.10386
-0.000125726
0.103892
-0.000125068
0.103923
-0.000124396
0.103953
-0.000123705
0.103984
-0.000122996
0.104014
-0.000122266
0.104045
-0.000121514
0.104075
-0.000120737
0.104104
-0.000119933
0.104134
-0.0001191
0.104164
-0.000118233
0.104193
-0.000117331
0.104222
-0.000116386
0.104251
-0.000115395
0.104279
-0.000114348
0.104307
-0.000113242
0.104335
-0.00011206
0.104363
-0.000110802
0.10439
-0.000109452
0.104417
-0.000108002
0.104444
-0.000106423
0.10447
-0.000104722
0.104495
-0.000102896
0.10452
-0.00010094
0.104545
-9.88288e-05
0.104569
-9.6533e-05
0.104593
-9.40129e-05
0.104616
-9.1239e-05
0.104638
-8.81421e-05
0.104659
-8.47017e-05
0.104679
-8.08803e-05
0.104698
-7.66366e-05
0.104716
-7.19001e-05
0.104733
-6.6605e-05
0.104748
-6.06906e-05
0.104762
-5.40762e-05
0.104774
-4.66858e-05
0.104784
-3.84043e-05
0.104791
-2.91303e-05
0.104796
-1.87094e-05
0.104798
-7.00293e-06
0.104797
6.17632e-06
0.104792
2.10152e-05
0.104783
3.7725e-05
0.104769
5.6547e-05
0.10475
7.77191e-05
0.104725
0.000101532
0.104693
0.000128259
0.104654
0.000158238
0.104607
0.000191764
0.10455
0.000229223
0.104483
0.0002709
0.104405
0.000317202
0.104314
0.000368387
0.104208
0.000424796
0.104088
0.000486639
0.10395
0.000554124
0.103794
0.000627285
0.103619
0.000706196
0.103422
0.000790564
0.103203
0.000880218
0.10296
0.000974711
0.102692
0.00107335
0.102398
0.0011755
0.102079
0.00127961
0.00138718
0.101732
0.1053
0.00149882
0.105013
0.00143691
0.104738
0.00137579
0.104476
0.00131551
0.104225
0.00125609
0.103986
0.00119761
0.103759
0.00114016
0.103543
0.00108383
0.103338
0.00102869
0.103144
0.00097479
0.102961
0.000922194
0.102788
0.000870951
0.102625
0.000821104
0.102471
0.000772691
0.102327
0.000725743
0.102192
0.000680283
0.102066
0.000636327
0.101949
0.000593887
0.10184
0.000552967
0.101738
0.000513568
0.101644
0.000475683
0.101557
0.000439302
0.101478
0.000404407
0.101405
0.000370979
0.101338
0.000338994
0.101277
0.000308426
0.101223
0.000279245
0.101173
0.000251421
0.101129
0.000224916
0.10109
0.000199696
0.101056
0.000175721
0.101026
0.000152952
0.101001
0.000131349
0.100979
0.000110871
0.100962
9.14785e-05
0.100948
7.31301e-05
0.100937
5.5785e-05
0.10093
3.94026e-05
0.100926
2.39422e-05
0.100924
9.36399e-06
0.100925
-4.37161e-06
0.100929
-1.73027e-05
0.100936
-2.94667e-05
0.100944
-4.08995e-05
0.100955
-5.16363e-05
0.100967
-6.1711e-05
0.100982
-7.11566e-05
0.100998
-8.00048e-05
0.101016
-8.82865e-05
0.101035
-9.60312e-05
0.101056
-0.000103268
0.101078
-0.000110023
0.101101
-0.000116323
0.101125
-0.000122193
0.101151
-0.000127658
0.101177
-0.000132738
0.101205
-0.000137458
0.101233
-0.000141835
0.101262
-0.000145892
0.101292
-0.000149645
0.101323
-0.000153113
0.101354
-0.000156312
0.101385
-0.000159259
0.101418
-0.000161969
0.10145
-0.000164456
0.101484
-0.000166734
0.101517
-0.000168815
0.101551
-0.000170712
0.101585
-0.000172435
0.10162
-0.000173996
0.101655
-0.000175404
0.10169
-0.00017667
0.101725
-0.000177802
0.101761
-0.000178809
0.101796
-0.000179698
0.101832
-0.000180479
0.101868
-0.000181157
0.101904
-0.00018174
0.10194
-0.000182233
0.101977
-0.000182645
0.102013
-0.000182978
0.102049
-0.000183242
0.102086
-0.000183437
0.102122
-0.000183572
0.102158
-0.000183649
0.102195
-0.000183674
0.102231
-0.000183647
0.102268
-0.000183576
0.102304
-0.00018346
0.10234
-0.000183305
0.102377
-0.00018311
0.102413
-0.00018288
0.102449
-0.000182615
0.102485
-0.000182319
0.102521
-0.00018199
0.102557
-0.000181633
0.102593
-0.000181247
0.102629
-0.000180835
0.102665
-0.000180396
0.102701
-0.000179933
0.102736
-0.000179448
0.102772
-0.000178941
0.102807
-0.000178414
0.102842
-0.000177869
0.102877
-0.000177307
0.102912
-0.000176729
0.102947
-0.000176139
0.102982
-0.000175536
0.103017
-0.000174922
0.103051
-0.000174299
0.103086
-0.000173668
0.10312
-0.00017303
0.103154
-0.000172386
0.103188
-0.000171736
0.103222
-0.000171081
0.103256
-0.000170422
0.10329
-0.000169759
0.103323
-0.000169093
0.103357
-0.000168422
0.10339
-0.000167747
0.103423
-0.000167068
0.103456
-0.000166385
0.103489
-0.000165697
0.103522
-0.000165004
0.103554
-0.000164304
0.103587
-0.000163598
0.103619
-0.000162884
0.103651
-0.000162163
0.103683
-0.000161433
0.103715
-0.000160695
0.103747
-0.000159946
0.103778
-0.000159186
0.10381
-0.000158414
0.103841
-0.000157629
0.103872
-0.000156829
0.103903
-0.000156011
0.103934
-0.000155176
0.103964
-0.000154318
0.103995
-0.000153438
0.104025
-0.000152532
0.104055
-0.000151598
0.104085
-0.000150634
0.104115
-0.000149636
0.104144
-0.000148602
0.104174
-0.000147526
0.104203
-0.000146405
0.104232
-0.000145232
0.10426
-0.000144002
0.104289
-0.000142702
0.104317
-0.000141328
0.104345
-0.000139859
0.104372
-0.000138291
0.104399
-0.000136604
0.104426
-0.0001348
0.104452
-0.000132853
0.104478
-0.000130753
0.104504
-0.000128487
0.104529
-0.00012605
0.104554
-0.000123412
0.104578
-0.000120546
0.104601
-0.000117403
0.104624
-0.00011396
0.104646
-0.000110121
0.104667
-0.000105859
0.104687
-0.000101118
0.104706
-9.58556e-05
0.104724
-8.99768e-05
0.104741
-8.34161e-05
0.104756
-7.60728e-05
0.10477
-6.78626e-05
0.104782
-5.86674e-05
0.104792
-4.83675e-05
0.1048
-3.68101e-05
0.104805
-2.38367e-05
0.104807
-9.24248e-06
0.104806
7.16791e-06
0.104802
2.56582e-05
0.104793
4.64639e-05
0.104779
6.99057e-05
0.104761
9.62684e-05
0.104736
0.000125925
0.104705
0.00015921
0.104667
0.000196557
0.104621
0.000238325
0.104565
0.000285011
0.104499
0.000336974
0.104421
0.000394713
0.104331
0.000458588
0.104227
0.000528997
0.104107
0.000606243
0.103971
0.000690574
0.103816
0.000782042
0.103641
0.00088076
0.103446
0.000986377
0.103227
0.00109865
0.102985
0.00121701
0.102718
0.00134064
0.102424
0.00146868
0.102105
0.00159921
0.00173405
0.101758
0.1053
0.00179846
0.105013
0.00172393
0.104739
0.00165036
0.104476
0.0015778
0.104226
0.00150629
0.103988
0.00143592
0.103761
0.00136681
0.103546
0.00129905
0.103342
0.00123273
0.103149
0.00116793
0.102966
0.0011047
0.102794
0.0010431
0.102632
0.000983206
0.10248
0.000925045
0.102337
0.000868656
0.102203
0.000814069
0.102078
0.000761301
0.101962
0.000710365
0.101853
0.000661266
0.101753
0.000614003
0.10166
0.000568569
0.101574
0.000524948
0.101496
0.000483121
0.101424
0.000443061
0.101358
0.00040474
0.101298
0.000368125
0.101244
0.00033318
0.101196
0.000299866
0.101153
0.00026814
0.101114
0.000237957
0.101081
0.000209271
0.101052
0.000182032
0.101027
0.000156194
0.101006
0.000131706
0.100989
0.000108519
0.100975
8.65854e-05
0.100965
6.58544e-05
0.100959
4.62769e-05
0.100955
2.78043e-05
0.100954
1.0388e-05
0.100955
-6.01904e-06
0.100959
-2.14631e-05
0.100966
-3.5989e-05
0.100975
-4.964e-05
0.100986
-6.24585e-05
0.100998
-7.44851e-05
0.101013
-8.57593e-05
0.101029
-9.63194e-05
0.101047
-0.000106202
0.101067
-0.000115443
0.101087
-0.000124077
0.10111
-0.000132136
0.101133
-0.000139651
0.101157
-0.000146653
0.101183
-0.00015317
0.101209
-0.000159228
0.101237
-0.000164855
0.101265
-0.000170075
0.101294
-0.00017491
0.101324
-0.000179384
0.101354
-0.000183517
0.101385
-0.00018733
0.101417
-0.000190842
0.101449
-0.00019407
0.101481
-0.000197033
0.101514
-0.000199745
0.101548
-0.000202223
0.101582
-0.000204481
0.101616
-0.000206532
0.10165
-0.000208389
0.101685
-0.000210065
0.10172
-0.00021157
0.101755
-0.000212916
0.10179
-0.000214113
0.101825
-0.00021517
0.101861
-0.000216097
0.101897
-0.000216901
0.101933
-0.000217594
0.101969
-0.000218179
0.102005
-0.000218666
0.102041
-0.000219061
0.102077
-0.000219372
0.102113
-0.000219602
0.102149
-0.00021976
0.102185
-0.000219847
0.102222
-0.000219872
0.102258
-0.000219836
0.102294
-0.000219745
0.10233
-0.000219601
0.102366
-0.000219409
0.102402
-0.000219169
0.102438
-0.000218887
0.102474
-0.000218562
0.10251
-0.0002182
0.102546
-0.0002178
0.102582
-0.000217366
0.102617
-0.000216897
0.102653
-0.000216399
0.102688
-0.000215869
0.102724
-0.000215313
0.102759
-0.000214729
0.102794
-0.000214122
0.102829
-0.000213491
0.102864
-0.00021284
0.102899
-0.00021217
0.102934
-0.000211483
0.102969
-0.000210779
0.103003
-0.000210062
0.103037
-0.000209332
0.103072
-0.000208592
0.103106
-0.000207841
0.10314
-0.000207082
0.103174
-0.000206314
0.103208
-0.000205541
0.103241
-0.00020476
0.103275
-0.000203975
0.103308
-0.000203183
0.103342
-0.000202387
0.103375
-0.000201585
0.103408
-0.000200779
0.103441
-0.000199967
0.103474
-0.000199151
0.103506
-0.000198328
0.103539
-0.000197499
0.103571
-0.000196663
0.103603
-0.000195819
0.103635
-0.000194966
0.103667
-0.000194104
0.103699
-0.000193233
0.103731
-0.00019235
0.103762
-0.000191456
0.103794
-0.000190548
0.103825
-0.000189627
0.103856
-0.000188688
0.103887
-0.000187732
0.103918
-0.000186756
0.103948
-0.000185758
0.103979
-0.000184734
0.104009
-0.000183683
0.104039
-0.000182601
0.104069
-0.000181488
0.104098
-0.000180338
0.104128
-0.000179149
0.104157
-0.000177915
0.104187
-0.000176634
0.104215
-0.000175299
0.104244
-0.0001739
0.104273
-0.000172434
0.104301
-0.000170885
0.104329
-0.000169245
0.104356
-0.000167494
0.104384
-0.00016562
0.104411
-0.000163597
0.104437
-0.000161433
0.104464
-0.000159118
0.104489
-0.000156619
0.104515
-0.000153917
0.10454
-0.000151005
0.104564
-0.00014785
0.104588
-0.000144418
0.104611
-0.000140662
0.104634
-0.000136555
0.104656
-0.000131987
0.104677
-0.000126927
0.104697
-0.000121287
0.104716
-0.000115031
0.104734
-0.000108036
0.104751
-0.000100241
0.104766
-9.15034e-05
0.10478
-8.17385e-05
0.104792
-7.07801e-05
0.104803
-5.85079e-05
0.104811
-4.47122e-05
0.104816
-2.92336e-05
0.104819
-1.18015e-05
0.104818
7.78996e-06
0.104814
2.98733e-05
0.104805
5.47181e-05
0.104793
8.27094e-05
0.104775
0.000114197
0.104751
0.000149614
0.104721
0.000189384
0.104683
0.000234006
0.104638
0.000283946
0.104583
0.000339761
0.104518
0.000401942
0.104442
0.000471037
0.104353
0.00054754
0.10425
0.000631903
0.104132
0.000724515
0.103997
0.000825688
0.103843
0.000935502
0.10367
0.00105405
0.103475
0.00118105
0.103258
0.00131604
0.103016
0.00145848
0.10275
0.00160729
0.102457
0.0017614
0.102138
0.00191862
0.00208104
0.101791
0.1053
0.00209804
0.105014
0.00201075
0.104739
0.0019246
0.104478
0.00183965
0.104228
0.00175594
0.10399
0.00167357
0.103764
0.00159269
0.10355
0.00151342
0.103347
0.00143584
0.103155
0.00136005
0.102973
0.00128612
0.102802
0.00121413
0.102641
0.00114413
0.10249
0.00107619
0.102349
0.00101033
0.102216
0.000946595
0.102092
0.000885005
0.101977
0.00082557
0.10187
0.000768295
0.101771
0.00071318
0.101679
0.000660213
0.101595
0.000609375
0.101517
0.000560641
0.101446
0.00051398
0.101382
0.000469357
0.101323
0.000426732
0.10127
0.000386063
0.101223
0.000347302
0.101181
0.000310398
0.101143
0.000275299
0.101111
0.000241947
0.101082
0.000210286
0.101058
0.00018026
0.101038
0.000151809
0.101022
0.000124876
0.101009
9.94023e-05
0.101
7.5331e-05
0.100993
5.26032e-05
0.10099
3.11619e-05
0.100989
1.09503e-05
0.100991
-8.08684e-06
0.100996
-2.60039e-05
0.101003
-4.28529e-05
0.101012
-5.8685e-05
0.101023
-7.35492e-05
0.101036
-8.74934e-05
0.101051
-0.000100563
0.101067
-0.000112804
0.101085
-0.000124258
0.101105
-0.000134967
0.101126
-0.000144971
0.101148
-0.000154308
0.101171
-0.000163013
0.101196
-0.000171124
0.101221
-0.000178671
0.101248