/*--------------------------------*- C++ -*----------------------------------*\
  =========                 |
  \\      /  F ield         | OpenFOAM: The Open Source CFD Toolbox
   \\    /   O peration     | Website:  https://openfoam.org
    \\  /    A nd           | Version:  8
     \\/     M anipulation  |
\*---------------------------------------------------------------------------*/
FoamFile
{
    version     2.0;
    format      ascii;
    class       volVectorField;
    location    "101";
    object      U;
}
// * * * * * * * * * * * * * * * * * * * * * * * * * * * * * * * * * * * * * //

dimensions      [0 1 -1 0 0 0 0];

internalField   nonuniform List<vector> 
65000
(
(10.0001 -0.000305042 0)
(10.0012 -0.000912247 1.24917e-21)
(10.0035 -0.00151266 1.25192e-21)
(10.007 -0.00210713 0)
(10.0117 -0.0026951 1.25601e-21)
(10.0176 -0.00327584 0)
(10.0245 -0.00384838 0)
(10.0327 -0.00441192 0)
(10.0419 -0.00496579 1.25898e-21)
(10.0523 -0.00550939 0)
(10.0637 -0.00604214 0)
(10.0762 -0.00656351 1.25666e-21)
(10.0899 -0.00707305 1.25504e-21)
(10.1045 -0.00757036 1.253e-21)
(10.1202 -0.00805511 0)
(10.1369 -0.00852703 1.24769e-21)
(10.1545 -0.00898589 1.24444e-21)
(10.1732 -0.00943156 0)
(10.1928 -0.00986394 1.23678e-21)
(10.2133 -0.010283 1.23238e-21)
(10.2347 -0.0106887 0)
(10.2571 -0.0110811 1.22248e-21)
(10.2802 -0.0114603 1.217e-21)
(10.3042 -0.0118265 1.21118e-21)
(10.3291 -0.0121799 0)
(10.3547 -0.0125207 0)
(10.3811 -0.012849 0)
(10.4083 -0.0131653 1.18462e-21)
(10.4362 -0.0134697 1.1772e-21)
(10.4648 -0.0137626 1.16948e-21)
(10.4941 -0.0140443 0)
(10.5241 -0.0143152 1.15319e-21)
(10.5547 -0.0145756 1.14464e-21)
(10.586 -0.0148259 1.13581e-21)
(10.6179 -0.0150665 0)
(10.6504 -0.0152977 0)
(10.6835 -0.0155199 1.10779e-21)
(10.7172 -0.0157335 1.09795e-21)
(10.7515 -0.0159389 1.08788e-21)
(10.7863 -0.0161363 0)
(10.8216 -0.0163262 1.06704e-21)
(10.8574 -0.0165089 1.05626e-21)
(10.8938 -0.0166848 0)
(10.9307 -0.0168541 0)
(10.968 -0.0170174 1.02266e-21)
(11.0059 -0.0171748 1.01105e-21)
(11.0441 -0.0173267 9.99238e-22)
(11.0829 -0.0174733 0)
(11.1221 -0.017615 9.75018e-22)
(11.1618 -0.017752 9.62619e-22)
(11.2019 -0.0178847 9.50031e-22)
(11.2424 -0.0180132 -9.37256e-22)
(11.2833 -0.0181379 9.24298e-22)
(11.3247 -0.0182588 9.11155e-22)
(11.3665 -0.0183764 8.97832e-22)
(11.4087 -0.0184908 0)
(11.4513 -0.0186022 8.70643e-22)
(11.4943 -0.0187108 8.56779e-22)
(11.5377 -0.0188168 8.42737e-22)
(11.5814 -0.0189204 -8.28517e-22)
(11.6256 -0.0190218 8.14119e-22)
(11.6702 -0.0191211 7.99545e-22)
(11.7151 -0.0192184 7.84792e-22)
(11.7605 -0.019314 7.69865e-22)
(11.8062 -0.019408 0)
(11.8523 -0.0195005 7.3948e-22)
(11.8988 -0.0195916 7.24018e-22)
(11.9457 -0.0196814 0)
(11.9929 -0.0197702 0)
(12.0406 -0.019858 6.76576e-22)
(12.0886 -0.0199449 6.60398e-22)
(12.137 -0.0200309 6.44047e-22)
(12.1858 -0.0201163 0)
(12.235 -0.020201 6.10791e-22)
(12.2845 -0.0202853 5.93884e-22)
(12.3345 -0.020369 5.76801e-22)
(12.3848 -0.0204525 -5.59523e-22)
(12.4356 -0.0205354 5.42065e-22)
(12.4867 -0.0206182 5.2441e-22)
(12.5382 -0.0207006 5.06568e-22)
(12.5901 -0.0207829 0)
(12.6424 -0.0208649 4.70287e-22)
(12.6952 -0.0209469 4.51842e-22)
(12.7483 -0.0210286 4.33192e-22)
(12.8018 -0.0211103 -4.1433e-22)
(12.8558 -0.0211919 3.95251e-22)
(12.9102 -0.0212735 3.75954e-22)
(12.965 -0.021355 3.5643e-22)
(13.0202 -0.0214366 0)
(13.0758 -0.0215182 -3.167e-22)
(13.1319 -0.0216 0)
(13.1884 -0.0216819 2.76038e-22)
(13.2454 -0.0217639 0)
(13.3028 -0.0218462 0)
(13.3606 -0.0219288 0)
(13.419 -0.0220117 0)
(13.4777 -0.0220948 0)
(13.537 -0.0221784 0)
(13.5967 -0.0222624 0)
(13.6569 -0.0223468 1.0379e-22)
(13.7175 -0.0224318 0)
(13.7787 -0.0225173 0)
(13.8403 -0.0226035 0)
(13.9024 -0.0226903 1.1706e-23)
(13.9651 -0.0227779 0)
(14.0282 -0.0228663 0)
(14.0919 -0.0229555 0)
(14.1561 -0.0230457 -8.46573e-23)
(14.2208 -0.0231367 0)
(14.286 -0.0232288 0)
(14.3518 -0.0233218 0)
(14.4181 -0.023416 -1.85674e-22)
(14.4849 -0.023511 0)
(14.5524 -0.0236072 0)
(14.6204 -0.0237043 0)
(14.6889 -0.0238023 -2.91749e-22)
(14.7581 -0.0239015 0)
(14.8278 -0.0240015 0)
(14.8982 -0.0241025 0)
(14.9691 -0.0242044 0)
(15.0407 -0.0243072 -4.32026e-22)
(15.1128 -0.0244109 0)
(15.1856 -0.0245154 0)
(15.2591 -0.0246207 0)
(15.3331 -0.0247268 -5.50849e-22)
(15.4079 -0.0248338 0)
(15.4833 -0.0249415 0)
(15.5593 -0.0250501 0)
(15.6361 -0.0251593 -6.76009e-22)
(15.7135 -0.0252692 0)
(15.7916 -0.0253799 0)
(15.8705 -0.0254912 0)
(15.95 -0.0256032 -8.07951e-22)
(16.0303 -0.0257161 0)
(16.1114 -0.0258296 0)
(16.1931 -0.025944 0)
(16.2757 -0.0260592 -9.47099e-22)
(16.359 -0.0261753 0)
(16.443 -0.0262921 0)
(16.5279 -0.0264099 0)
(16.6136 -0.0265287 -1.09394e-21)
(16.7001 -0.0266484 0)
(16.7874 -0.026769 0)
(16.8755 -0.0268907 0)
(16.9645 -0.0270134 -1.24911e-21)
(17.0543 -0.0271367 0)
(17.145 -0.0272609 0)
(17.2366 -0.0273856 0)
(17.3291 -0.0275115 0)
(17.4225 -0.0276379 -1.45591e-21)
(17.5167 -0.0277657 0)
(17.6119 -0.0278935 0)
(17.7081 -0.028022 0)
(17.8051 -0.0281508 -1.63266e-21)
(17.9032 -0.0282809 0)
(18.0022 -0.02841 0)
(18.1021 -0.0285397 0)
(18.2031 -0.0286684 -1.81958e-21)
(18.305 -0.0287954 0)
(18.408 -0.0289208 0)
(18.5119 -0.0290456 0)
(18.6169 -0.0291684 -2.01191e-21)
(18.7229 -0.0292877 0)
(18.8299 -0.029402 0)
(18.9379 -0.0295128 0)
(19.0469 -0.0296195 -2.20868e-21)
(19.157 -0.0297222 0)
(19.2681 -0.0298208 0)
(19.3801 -0.0299143 0)
(19.4932 -0.0300025 0)
(19.6072 -0.0300834 0)
(19.7221 -0.0301564 0)
(19.838 -0.0302187 0)
(19.9547 -0.030269 -2.63666e-21)
(20.0723 -0.0303052 0)
(20.1906 -0.0303241 0)
(20.3097 -0.0303247 0)
(20.4294 -0.0303013 0)
(20.5497 -0.0302538 -2.93362e-21)
(20.6705 -0.0301754 0)
(20.7916 -0.0300647 0)
(20.9129 -0.0299168 0)
(21.0342 -0.029727 -3.18807e-21)
(21.1555 -0.0294931 0)
(21.2764 -0.0292072 0)
(21.3969 -0.0288706 0)
(21.5166 -0.0284707 -3.45324e-21)
(21.6353 -0.0280164 0)
(21.7527 -0.027488 0)
(21.8685 -0.0268979 0)
(21.9824 -0.0262343 -3.72116e-21)
(22.094 -0.0254946 3.78823e-21)
(22.2031 -0.0246908 -3.85401e-21)
(22.3091 -0.0238103 0)
(22.4119 -0.0228659 -3.98486e-21)
(22.5111 -0.0218447 0)
(22.6063 -0.0207871 -4.10657e-21)
(22.6972 -0.0196839 0)
(22.7837 -0.018538 -4.22709e-21)
(22.8653 -0.0173444 0)
(10.0001 -0.00091521 0)
(10.0012 -0.00273639 1.24698e-21)
(10.0035 -0.00453944 1.24983e-21)
(10.007 -0.00632399 0)
(10.0117 -0.00808897 1.25415e-21)
(10.0176 -0.00983206 0)
(10.0246 -0.0115506 0)
(10.0327 -0.0132421 0)
(10.042 -0.0149044 1.25755e-21)
(10.0523 -0.0165358 0)
(10.0638 -0.0181347 0)
(10.0764 -0.0196993 1.25551e-21)
(10.09 -0.0212283 1.25398e-21)
(10.1047 -0.0227206 1.25203e-21)
(10.1204 -0.0241751 0)
(10.1371 -0.025591 1.24689e-21)
(10.1548 -0.0269677 1.24372e-21)
(10.1734 -0.0283047 0)
(10.1931 -0.0296018 1.2362e-21)
(10.2136 -0.0308588 1.23187e-21)
(10.235 -0.0320757 0)
(10.2574 -0.0332527 1.2221e-21)
(10.2806 -0.0343902 1.21668e-21)
(10.3046 -0.0354886 1.21091e-21)
(10.3295 -0.0365485 0)
(10.3551 -0.0375704 0)
(10.3815 -0.0385551 0)
(10.4087 -0.0395034 1.18454e-21)
(10.4366 -0.0404162 1.17716e-21)
(10.4653 -0.0412945 1.16947e-21)
(10.4946 -0.0421393 0)
(10.5246 -0.0429516 1.15325e-21)
(10.5553 -0.0437324 1.14473e-21)
(10.5866 -0.0444829 1.13593e-21)
(10.6185 -0.0452042 0)
(10.651 -0.0458974 0)
(10.6841 -0.0465635 1.10797e-21)
(10.7178 -0.0472038 1.09815e-21)
(10.7521 -0.0478193 1.0881e-21)
(10.7869 -0.0484111 0)
(10.8222 -0.0489804 1.06728e-21)
(10.8581 -0.0495281 1.05647e-21)
(10.8945 -0.0500553 0)
(10.9313 -0.0505631 0)
(10.9687 -0.0510524 1.02277e-21)
(11.0065 -0.0515242 1.01113e-21)
(11.0448 -0.0519793 9.99291e-22)
(11.0836 -0.0524188 0)
(11.1228 -0.0528435 9.75026e-22)
(11.1625 -0.0532542 9.62608e-22)
(11.2026 -0.0536517 9.50002e-22)
(11.2431 -0.0540369 -9.37213e-22)
(11.284 -0.0544103 9.24239e-22)
(11.3254 -0.0547729 9.11085e-22)
(11.3672 -0.0551252 8.9775e-22)
(11.4094 -0.0554679 0)
(11.452 -0.0558017 8.70543e-22)
(11.495 -0.0561271 8.56672e-22)
(11.5384 -0.0564447 8.42623e-22)
(11.5822 -0.056755 -8.28398e-22)
(11.6263 -0.0570586 8.13996e-22)
(11.6709 -0.057356 7.99419e-22)
(11.7159 -0.0576475 7.84664e-22)
(11.7612 -0.0579338 7.69736e-22)
(11.8069 -0.0582151 0)
(11.853 -0.0584919 7.39349e-22)
(11.8995 -0.0587645 7.23888e-22)
(11.9464 -0.0590334 0)
(11.9937 -0.0592989 0)
(12.0413 -0.0595612 6.76453e-22)
(12.0893 -0.0598208 6.60277e-22)
(12.1377 -0.0600778 6.43931e-22)
(12.1865 -0.0603326 0)
(12.2357 -0.0605854 6.10685e-22)
(12.2852 -0.0608365 5.93782e-22)
(12.3352 -0.0610861 5.76707e-22)
(12.3855 -0.0613343 -5.59435e-22)
(12.4362 -0.0615815 5.41985e-22)
(12.4874 -0.0618278 5.24336e-22)
(12.5389 -0.0620733 5.06503e-22)
(12.5908 -0.0623184 0)
(12.6431 -0.0625629 4.70237e-22)
(12.6958 -0.0628074 4.51799e-22)
(12.749 -0.0630517 4.33157e-22)
(12.8025 -0.0632961 -4.143e-22)
(12.8565 -0.0635407 3.95228e-22)
(12.9108 -0.0637857 3.75935e-22)
(12.9656 -0.064031 3.56419e-22)
(13.0208 -0.0642772 0)
(13.0765 -0.0645237 -3.16698e-22)
(13.1326 -0.0647713 0)
(13.1891 -0.0650195 2.76045e-22)
(13.246 -0.0652689 0)
(13.3034 -0.0655191 0)
(13.3613 -0.0657706 0)
(13.4196 -0.066023 0)
(13.4784 -0.0662767 0)
(13.5376 -0.0665316 0)
(13.5973 -0.0667879 0)
(13.6575 -0.0670454 1.03851e-22)
(13.7182 -0.0673044 0)
(13.7793 -0.067565 0)
(13.8409 -0.067827 0)
(13.9031 -0.0680909 1.18249e-23)
(13.9657 -0.0683563 0)
(14.0288 -0.0686239 0)
(14.0925 -0.0688932 0)
(14.1567 -0.0691649 -8.44389e-23)
(14.2214 -0.0694385 0)
(14.2866 -0.0697147 0)
(14.3524 -0.069993 0)
(14.4187 -0.0702741 -1.85302e-22)
(14.4856 -0.0705575 0)
(14.553 -0.0708437 0)
(14.621 -0.0711323 0)
(14.6896 -0.0714237 -2.91173e-22)
(14.7587 -0.0717175 0)
(14.8284 -0.0720143 0)
(14.8988 -0.0723134 0)
(14.9697 -0.0726155 0)
(15.0412 -0.0729198 -4.31167e-22)
(15.1134 -0.0732271 0)
(15.1862 -0.0735365 0)
(15.2596 -0.0738491 0)
(15.3337 -0.0741638 -5.4977e-22)
(15.4084 -0.0744816 0)
(15.4838 -0.0748015 0)
(15.5599 -0.0751245 0)
(15.6366 -0.0754499 -6.74727e-22)
(15.7141 -0.0757783 0)
(15.7922 -0.0761092 0)
(15.871 -0.0764429 0)
(15.9506 -0.0767792 -8.06491e-22)
(16.0309 -0.0771185 0)
(16.1119 -0.0774604 0)
(16.1936 -0.0778052 0)
(16.2762 -0.0781526 -9.45493e-22)
(16.3595 -0.0785025 0)
(16.4435 -0.0788551 0)
(16.5284 -0.0792106 0)
(16.6141 -0.0795689 -1.09221e-21)
(16.7005 -0.07993 0)
(16.7878 -0.0802936 0)
(16.876 -0.08066 0)
(16.9649 -0.0810287 -1.24725e-21)
(17.0548 -0.0814001 0)
(17.1455 -0.0817737 0)
(17.2371 -0.0821495 0)
(17.3295 -0.0825273 0)
(17.4229 -0.0829068 -1.45385e-21)
(17.5172 -0.0832879 0)
(17.6124 -0.0836702 0)
(17.7085 -0.0840538 0)
(17.8055 -0.0844377 -1.63041e-21)
(17.9036 -0.0848228 0)
(18.0026 -0.0852069 0)
(18.1025 -0.0855905 0)
(18.2035 -0.0859732 -1.81751e-21)
(18.3054 -0.0863537 0)
(18.4083 -0.0867314 0)
(18.5123 -0.0871056 0)
(18.6172 -0.0874738 -2.01037e-21)
(18.7232 -0.0878357 0)
(18.8302 -0.0881897 0)
(18.9382 -0.088535 0)
(19.0473 -0.0888687 -2.20738e-21)
(19.1573 -0.0891886 0)
(19.2684 -0.089493 0)
(19.3805 -0.0897787 0)
(19.4935 -0.0900447 0)
(19.6075 -0.0902858 0)
(19.7225 -0.0905008 0)
(19.8383 -0.0906822 0)
(19.9551 -0.0908273 -2.63509e-21)
(20.0727 -0.0909272 0)
(20.1911 -0.090977 0)
(20.3101 -0.0909674 0)
(20.4299 -0.0908906 0)
(20.5502 -0.0907376 -2.93284e-21)
(20.671 -0.0904976 0)
(20.7921 -0.0901611 0)
(20.9134 -0.0897151 0)
(21.0348 -0.0891486 -3.18831e-21)
(21.1561 -0.0884482 0)
(21.2771 -0.0876017 0)
(21.3976 -0.0865949 0)
(21.5173 -0.0854166 -3.4537e-21)
(21.6361 -0.084052 0)
(21.7536 -0.0824938 0)
(21.8694 -0.0807259 0)
(21.9834 -0.0787492 -3.71989e-21)
(22.0951 -0.0765484 3.78665e-21)
(22.2042 -0.0741336 -3.85098e-21)
(22.3103 -0.0715063 0)
(22.4132 -0.0686681 -3.98013e-21)
(22.5124 -0.0656378 0)
(22.6076 -0.0624412 -4.0991e-21)
(22.6986 -0.0591038 0)
(22.7851 -0.0556662 -4.21747e-21)
(22.8668 -0.052083 0)
(10.0001 -0.00152718 0)
(10.0012 -0.00456566 -2.4866e-21)
(10.0035 -0.00757437 -2.49255e-21)
(10.0071 -0.010552 0)
(10.0118 -0.0134968 -2.50168e-21)
(10.0176 -0.016405 0)
(10.0247 -0.019272 0)
(10.0328 -0.0220936 0)
(10.0421 -0.0248665 -2.50946e-21)
(10.0525 -0.0275878 0)
(10.064 -0.0302544 0)
(10.0766 -0.0328639 -2.50612e-21)
(10.0903 -0.0354137 -2.50329e-21)
(10.105 -0.0379021 -2.49962e-21)
(10.1207 -0.0403272 0)
(10.1375 -0.0426879 -2.48979e-21)
(10.1552 -0.044983 -2.48366e-21)
(10.1739 -0.0472118 0)
(10.1936 -0.0493738 -2.46904e-21)
(10.2142 -0.0514688 -2.46057e-21)
(10.2357 -0.0534968 0)
(10.258 -0.0554583 -2.4414e-21)
(10.2813 -0.0573538 -2.43074e-21)
(10.3053 -0.0591839 -2.41938e-21)
(10.3302 -0.0609497 0)
(10.3559 -0.0626522 0)
(10.3824 -0.0642925 0)
(10.4096 -0.0658722 -2.36725e-21)
(10.4376 -0.0673926 -2.35262e-21)
(10.4662 -0.0688555 -2.33739e-21)
(10.4956 -0.0702624 0)
(10.5256 -0.0716152 -2.30518e-21)
(10.5563 -0.0729156 -2.28824e-21)
(10.5876 -0.0741654 -2.27074e-21)
(10.6196 -0.0753664 0)
(10.6521 -0.0765206 0)
(10.6853 -0.0776298 -2.21512e-21)
(10.719 -0.0786958 -2.19556e-21)
(10.7533 -0.0797206 -2.17553e-21)
(10.7881 -0.0807059 0)
(10.8235 -0.0816536 -2.134e-21)
(10.8594 -0.0825655 -2.11233e-21)
(10.8958 -0.0834433 0)
(10.9326 -0.0842886 0)
(10.97 -0.0851032 -2.04485e-21)
(11.0079 -0.0858886 -2.02154e-21)
(11.0462 -0.0866464 -1.99784e-21)
(11.085 -0.087378 0)
(11.1242 -0.088085 -1.94928e-21)
(11.1639 -0.0887687 -1.92443e-21)
(11.204 -0.0894304 -1.89921e-21)
(11.2445 -0.0900716 1.87362e-21)
(11.2855 -0.0906934 -1.84766e-21)
(11.3268 -0.091297 -1.82135e-21)
(11.3686 -0.0918835 -1.79468e-21)
(11.4108 -0.0924541 0)
(11.4534 -0.0930098 -1.74026e-21)
(11.4964 -0.0935515 -1.71252e-21)
(11.5398 -0.0940803 -1.68443e-21)
(11.5836 -0.094597 1.65598e-21)
(11.6278 -0.0951024 -1.62718e-21)
(11.6723 -0.0955975 -1.59803e-21)
(11.7173 -0.0960829 -1.56853e-21)
(11.7626 -0.0965595 -1.53868e-21)
(11.8084 -0.0970278 0)
(11.8545 -0.0974887 -1.47793e-21)
(11.901 -0.0979426 -1.44702e-21)
(11.9478 -0.0983903 0)
(11.9951 -0.0988322 0)
(12.0427 -0.099269 -1.35218e-21)
(12.0907 -0.099701 -1.31984e-21)
(12.1391 -0.100129 -1.28716e-21)
(12.1879 -0.100553 0)
(12.2371 -0.100974 -1.22069e-21)
(12.2866 -0.101392 -1.1869e-21)
(12.3366 -0.101807 -1.15275e-21)
(12.3869 -0.10222 1.11822e-21)
(12.4376 -0.102631 -1.08333e-21)
(12.4888 -0.103041 -1.04804e-21)
(12.5403 -0.10345 -1.01237e-21)
(12.5922 -0.103858 0)
(12.6445 -0.104265 -9.39847e-22)
(12.6972 -0.104672 -9.02971e-22)
(12.7503 -0.105079 -8.65688e-22)
(12.8039 -0.105487 8.27974e-22)
(12.8578 -0.105895 -7.89834e-22)
(12.9122 -0.106303 -7.51249e-22)
(12.967 -0.106712 -7.12223e-22)
(13.0222 -0.107123 0)
(13.0778 -0.107535 6.32803e-22)
(13.1339 -0.107948 0)
(13.1904 -0.108362 -5.51531e-22)
(13.2473 -0.108778 0)
(13.3047 -0.109196 4.6858e-22)
(13.3626 -0.109616 4.26291e-22)
(13.4209 -0.110037 0)
(13.4797 -0.110461 0)
(13.5389 -0.110887 0)
(13.5986 -0.111314 0)
(13.6588 -0.111744 2.06684e-25)
(13.7194 -0.112176 0)
(13.7805 -0.112611 0)
(13.8422 -0.113048 0)
(13.9043 -0.113488 2.12963e-25)
(13.9669 -0.113931 0)
(14.03 -0.114377 0)
(14.0937 -0.114827 0)
(14.1579 -0.115279 2.21624e-25)
(14.2226 -0.115735 0)
(14.2878 -0.116195 0)
(14.3535 -0.116658 0)
(14.4198 -0.117126 2.31559e-25)
(14.4867 -0.117597 0)
(14.5541 -0.118072 0)
(14.6221 -0.118552 0)
(14.6907 -0.119036 2.41863e-25)
(14.7598 -0.119524 0)
(14.8295 -0.120017 0)
(14.8998 -0.120513 0)
(14.9708 -0.121015 -8.04117e-22)
(15.0423 -0.12152 8.61765e-22)
(15.1145 -0.12203 0)
(15.1872 -0.122544 0)
(15.2607 -0.123063 0)
(15.3347 -0.123586 2.66772e-25)
(15.4094 -0.124114 0)
(15.4848 -0.124646 0)
(15.5609 -0.125183 0)
(15.6376 -0.125724 2.79053e-25)
(15.715 -0.12627 0)
(15.7931 -0.126821 0)
(15.872 -0.127376 0)
(15.9515 -0.127936 2.90101e-25)
(16.0318 -0.128501 0)
(16.1128 -0.129071 0)
(16.1945 -0.129646 0)
(16.277 -0.130225 3.00669e-25)
(16.3603 -0.130809 0)
(16.4444 -0.131398 0)
(16.5292 -0.131991 0)
(16.6149 -0.132589 3.12375e-25)
(16.7014 -0.133192 0)
(16.7886 -0.133799 0)
(16.8768 -0.13441 0)
(16.9657 -0.135025 2.49405e-21)
(17.0556 -0.135645 -2.57407e-21)
(17.1463 -0.136268 0)
(17.2378 -0.136896 0)
(17.3303 -0.137527 0)
(17.4236 -0.13816 3.40725e-25)
(17.5179 -0.138796 0)
(17.6131 -0.139434 0)
(17.7092 -0.140074 0)
(17.8063 -0.140715 3.47287e-25)
(17.9043 -0.141357 0)
(18.0033 -0.141996 0)
(18.1032 -0.142634 0)
(18.2041 -0.14327 3.47081e-25)
(18.3061 -0.143905 0)
(18.409 -0.144535 0)
(18.5129 -0.145161 0)
(18.6179 -0.145777 3.36057e-25)
(18.7239 -0.146382 0)
(18.8309 -0.146973 0)
(18.9389 -0.14755 0)
(19.048 -0.148107 3.01144e-25)
(19.158 -0.148642 0)
(19.2691 -0.149149 0)
(19.3812 -0.149627 0)
(19.4942 -0.15007 0)
(19.6083 -0.150473 -4.93441e-21)
(19.7233 -0.15083 0)
(19.8391 -0.151133 0)
(19.9559 -0.151373 5.26752e-21)
(20.0735 -0.151539 -5.38279e-21)
(20.1919 -0.15162 5.49995e-21)
(20.3111 -0.151603 0)
(20.4308 -0.151475 0)
(20.5512 -0.15122 -1.73275e-25)
(20.672 -0.150822 5.98874e-21)
(20.7932 -0.150265 0)
(20.9146 -0.149527 0)
(21.036 -0.148591 -5.32253e-25)
(21.1574 -0.147432 6.50673e-21)
(21.2785 -0.146032 0)
(21.3991 -0.144364 0)
(21.5189 -0.14241 6.90418e-21)
(21.6378 -0.140147 0)
(21.7554 -0.137555 0)
(21.8714 -0.13462 0)
(21.9855 -0.131325 7.4318e-21)
(22.0973 -0.127666 -7.56378e-21)
(22.2065 -0.12364 -2.09513e-24)
(22.3128 -0.119251 0)
(22.4158 -0.114526 7.94271e-21)
(22.5151 -0.109488 0)
(22.6104 -0.104171 8.17328e-21)
(22.7015 -0.0985939 8.29091e-21)
(22.788 -0.0928619 -2.88781e-24)
(22.8697 -0.0868889 0)
(10.0001 -0.00214182 0)
(10.0012 -0.0064028 4.96851e-21)
(10.0035 -0.0106222 4.98082e-21)
(10.0071 -0.0147978 0)
(10.0118 -0.0189273 4.99988e-21)
(10.0177 -0.023005 0)
(10.0248 -0.0270246 0)
(10.033 -0.0309803 0)
(10.0423 -0.0348675 5.01686e-21)
(10.0528 -0.0386818 0)
(10.0643 -0.0424192 0)
(10.077 -0.046076 5.01108e-21)
(10.0907 -0.0496489 5.00569e-21)
(10.1054 -0.0531352 4.9986e-21)
(10.1212 -0.0565326 0)
(10.138 -0.0598393 4.97939e-21)
(10.1559 -0.0630538 4.96734e-21)
(10.1746 -0.066175 0)
(10.1944 -0.0692023 4.93845e-21)
(10.215 -0.0721355 4.92167e-21)
(10.2366 -0.0749747 0)
(10.259 -0.0777204 4.88362e-21)
(10.2823 -0.0803733 4.86242e-21)
(10.3065 -0.0829346 4.8398e-21)
(10.3314 -0.0854054 0)
(10.3572 -0.0877874 0)
(10.3837 -0.0900823 0)
(10.411 -0.0922921 4.73588e-21)
(10.439 -0.0944189 4.7067e-21)
(10.4677 -0.096465 4.67628e-21)
(10.4971 -0.0984327 0)
(10.5272 -0.100324 4.61196e-21)
(10.5579 -0.102143 4.57812e-21)
(10.5893 -0.10389 4.54316e-21)
(10.6213 -0.10557 0)
(10.6539 -0.107183 0)
(10.6871 -0.108734 4.43197e-21)
(10.7208 -0.110224 4.39287e-21)
(10.7551 -0.111657 4.35282e-21)
(10.79 -0.113034 0)
(10.8254 -0.114359 4.2697e-21)
(10.8613 -0.115633 4.22617e-21)
(10.8977 -0.11686 0)
(10.9346 -0.118042 0)
(10.972 -0.11918 4.09068e-21)
(11.0099 -0.120278 4.04392e-21)
(11.0482 -0.121337 3.99639e-21)
(11.087 -0.12236 0)
(11.1263 -0.123348 3.89902e-21)
(11.1659 -0.124304 3.84921e-21)
(11.2061 -0.125229 3.79868e-21)
(11.2466 -0.126125 -3.74741e-21)
(11.2876 -0.126994 3.69543e-21)
(11.329 -0.127838 3.64273e-21)
(11.3708 -0.128658 3.58933e-21)
(11.413 -0.129455 0)
(11.4556 -0.130232 3.48039e-21)
(11.4986 -0.13099 3.42487e-21)
(11.542 -0.131729 3.36865e-21)
(11.5858 -0.132451 -3.31172e-21)
(11.6299 -0.133158 3.25411e-21)
(11.6745 -0.13385 3.19578e-21)
(11.7195 -0.134529 3.13677e-21)
(11.7648 -0.135195 3.07706e-21)
(11.8105 -0.13585 0)
(11.8566 -0.136495 2.95555e-21)
(11.9031 -0.137129 2.89373e-21)
(11.95 -0.137755 0)
(11.9972 -0.138373 0)
(12.0449 -0.138984 2.70407e-21)
(12.0929 -0.139588 2.63941e-21)
(12.1413 -0.140187 2.57406e-21)
(12.19 -0.14078 0)
(12.2392 -0.141368 2.44114e-21)
(12.2888 -0.141953 2.37358e-21)
(12.3387 -0.142534 2.30529e-21)
(12.389 -0.143111 -2.23624e-21)
(12.4397 -0.143687 2.16645e-21)
(12.4908 -0.14426 2.09588e-21)
(12.5423 -0.144832 2.02454e-21)
(12.5942 -0.145403 0)
(12.6466 -0.145973 1.87948e-21)
(12.6993 -0.146542 1.80573e-21)
(12.7524 -0.147112 1.73115e-21)
(12.8059 -0.147682 -1.65572e-21)
(12.8598 -0.148252 1.57944e-21)
(12.9142 -0.148824 1.50229e-21)
(12.969 -0.149397 1.42425e-21)
(13.0242 -0.149971 0)
(13.0798 -0.150548 -1.26548e-21)
(13.1359 -0.151126 0)
(13.1924 -0.151706 1.10305e-21)
(13.2493 -0.152289 0)
(13.3067 -0.152874 -4.6817e-22)
(13.3645 -0.153462 -4.25925e-22)
(13.4228 -0.154052 0)
(13.4816 -0.154645 0)
(13.5408 -0.155241 0)
(13.6005 -0.15584 0)
(13.6606 -0.156442 2.08067e-22)
(13.7212 -0.157048 0)
(13.7824 -0.157656 0)
(13.844 -0.158269 0)
(13.9061 -0.158885 2.43133e-23)
(13.9687 -0.159506 0)
(14.0318 -0.16013 0)
(14.0954 -0.160759 0)
(14.1596 -0.161393 -1.68014e-22)
(14.2243 -0.162032 0)
(14.2895 -0.162675 0)
(14.3552 -0.163323 0)
(14.4215 -0.163977 -3.69606e-22)
(14.4884 -0.164637 0)
(14.5558 -0.165301 0)
(14.6237 -0.165972 0)
(14.6923 -0.166648 -5.81245e-22)
(14.7614 -0.167331 0)
(14.8311 -0.168019 0)
(14.9014 -0.168714 0)
(14.9723 -0.169414 8.04499e-22)
(15.0438 -0.170121 -1.72314e-21)
(15.116 -0.170834 0)
(15.1887 -0.171554 0)
(15.2621 -0.172279 0)
(15.3362 -0.173011 -1.09849e-21)
(15.4109 -0.173749 0)
(15.4863 -0.174494 0)
(15.5623 -0.175245 0)
(15.639 -0.176002 -1.34855e-21)
(15.7164 -0.176766 0)
(15.7945 -0.177537 0)
(15.8733 -0.178315 0)
(15.9528 -0.1791 -1.61222e-21)
(16.0331 -0.179891 0)
(16.1141 -0.180688 0)
(16.1958 -0.181493 0)
(16.2783 -0.182304 -1.89044e-21)
(16.3616 -0.183122 0)
(16.4457 -0.183946 0)
(16.5305 -0.184777 0)
(16.6161 -0.185615 -2.18426e-21)
(16.7026 -0.186459 0)
(16.7899 -0.187309 0)
(16.878 -0.188165 0)
(16.9669 -0.189028 -4.99066e-21)
(17.0567 -0.189897 2.57622e-21)
(17.1474 -0.190771 0)
(17.239 -0.191651 0)
(17.3314 -0.192535 0)
(17.4248 -0.193423 -2.90861e-21)
(17.519 -0.194315 0)
(17.6142 -0.195209 0)
(17.7103 -0.196105 0)
(17.8074 -0.197002 -3.26203e-21)
(17.9054 -0.197898 0)
(18.0043 -0.198793 0)
(18.1043 -0.199689 0)
(18.2052 -0.200585 -3.63611e-21)
(18.3071 -0.201479 0)
(18.4101 -0.202368 0)
(18.514 -0.203248 0)
(18.619 -0.204116 -4.02175e-21)
(18.7249 -0.204967 0)
(18.832 -0.205798 0)
(18.94 -0.206608 0)
(19.049 -0.207392 -4.41536e-21)
(19.1591 -0.208145 0)
(19.2702 -0.208859 0)
(19.3823 -0.20953 0)
(19.4954 -0.210152 0)
(19.6094 -0.210717 4.93384e-21)
(19.7244 -0.211216 0)
(19.8404 -0.211639 0)
(19.9572 -0.211971 -1.05305e-20)
(20.0748 -0.212203 5.38037e-21)
(20.1933 -0.212314 -5.49743e-21)
(20.3124 -0.212291 0)
(20.4323 -0.212112 0)
(20.5527 -0.211758 -5.8602e-21)
(20.6736 -0.211205 -5.9851e-21)
(20.7949 -0.210428 0)
(20.9163 -0.209403 0)
(21.0379 -0.208098 -6.37211e-21)
(21.1594 -0.206487 -6.5021e-21)
(21.2806 -0.204534 0)
(21.4014 -0.202213 0)
(21.5214 -0.199486 -1.38015e-20)
(21.6404 -0.196329 0)
(21.7582 -0.192707 0)
(21.8744 -0.188604 0)
(21.9886 -0.183994 -1.48521e-20)
(22.1007 -0.178873 1.51126e-20)
(22.2101 -0.173234 -7.68426e-21)
(22.3166 -0.167091 0)
(22.4197 -0.160466 -1.58573e-20)
(22.5192 -0.153379 0)
(22.6146 -0.145902 -1.63084e-20)
(22.7057 -0.138075 -8.26678e-21)
(22.7923 -0.13003 -8.38889e-21)
(22.8741 -0.121638 0)
(10.0001 -0.00276025 0)
(10.0012 -0.00825116 -4.9559e-21)
(10.0036 -0.0136885 -4.96868e-21)
(10.0071 -0.0190691 0)
(10.0119 -0.0243898 -4.98867e-21)
(10.0179 -0.0296434 0)
(10.0249 -0.0348215 0)
(10.0332 -0.0399168 0)
(10.0426 -0.0449232 -5.00746e-21)
(10.0531 -0.0498351 0)
(10.0647 -0.0546474 0)
(10.0774 -0.0593552 -5.00297e-21)
(10.0912 -0.0639544 -4.998e-21)
(10.1061 -0.0684414 -4.99131e-21)
(10.122 -0.0728134 0)
(10.1388 -0.0770679 -4.97287e-21)
(10.1567 -0.0812032 -4.96118e-21)
(10.1756 -0.0852178 0)
(10.1954 -0.0891111 -4.93299e-21)
(10.2162 -0.0928827 -4.91654e-21)
(10.2378 -0.0965329 0)
(10.2603 -0.100062 -4.87911e-21)
(10.2837 -0.103472 -4.8582e-21)
(10.3079 -0.106763 -4.83586e-21)
(10.333 -0.109938 0)
(10.3588 -0.112998 0)
(10.3854 -0.115946 0)
(10.4128 -0.118784 -4.73293e-21)
(10.4408 -0.121515 -4.70396e-21)
(10.4696 -0.124143 -4.67375e-21)
(10.4991 -0.126669 0)
(10.5292 -0.129097 -4.60981e-21)
(10.56 -0.131432 -4.57614e-21)
(10.5915 -0.133675 -4.54134e-21)
(10.6235 -0.13583 0)
(10.6562 -0.137901 0)
(10.6894 -0.139891 -4.43059e-21)
(10.7232 -0.141803 -4.39163e-21)
(10.7576 -0.143641 -4.35169e-21)
(10.7925 -0.145409 0)
(10.8279 -0.147108 -4.2687e-21)
(10.8639 -0.148744 -4.22507e-21)
(10.9003 -0.150318 0)
(10.9373 -0.151834 0)
(10.9747 -0.153294 -4.08933e-21)
(11.0126 -0.154703 -4.0425e-21)
(11.0509 -0.156062 -3.99491e-21)
(11.0898 -0.157374 0)
(11.129 -0.158641 -3.89745e-21)
(11.1687 -0.159867 -3.84761e-21)
(11.2089 -0.161054 -3.79704e-21)
(11.2494 -0.162204 3.74575e-21)
(11.2904 -0.16332 -3.69375e-21)
(11.3318 -0.164402 -3.64103e-21)
(11.3736 -0.165454 -3.58762e-21)
(11.4158 -0.166478 0)
(11.4584 -0.167475 -3.47867e-21)
(11.5014 -0.168447 -3.42315e-21)
(11.5448 -0.169395 -3.36693e-21)
(11.5886 -0.170323 3.31002e-21)
(11.6328 -0.17123 -3.25241e-21)
(11.6774 -0.172118 -3.1941e-21)
(11.7223 -0.17299 -3.13511e-21)
(11.7677 -0.173845 -3.07542e-21)
(11.8134 -0.174686 0)
(11.8595 -0.175513 -2.95395e-21)
(11.906 -0.176328 -2.89216e-21)
(11.9529 -0.177132 0)
(12.0001 -0.177926 0)
(12.0477 -0.17871 -2.70259e-21)
(12.0957 -0.179486 -2.63796e-21)
(12.1441 -0.180254 -2.57263e-21)
(12.1929 -0.181016 0)
(12.242 -0.181772 -2.43978e-21)
(12.2916 -0.182523 -2.37224e-21)
(12.3415 -0.183269 -2.30398e-21)
(12.3918 -0.184011 2.23495e-21)
(12.4425 -0.18475 -2.16518e-21)
(12.4936 -0.185487 -2.09463e-21)
(12.5451 -0.186221 -2.0233e-21)
(12.597 -0.186954 0)
(12.6493 -0.187687 -1.87826e-21)
(12.702 -0.188418 -1.80452e-21)
(12.7551 -0.18915 -1.72995e-21)
(12.8086 -0.189883 1.65454e-21)
(12.8625 -0.190616 -1.57828e-21)
(12.9169 -0.19135 -1.50115e-21)
(12.9716 -0.192086 -1.42314e-21)
(13.0268 -0.192824 0)
(13.0824 -0.193564 1.26446e-21)
(13.1385 -0.194307 0)
(13.195 -0.195052 -1.10217e-21)
(13.2519 -0.195801 0)
(13.3093 -0.196552 -9.36932e-22)
(13.3671 -0.197307 -8.52538e-22)
(13.4254 -0.198065 0)
(13.4841 -0.198827 0)
(13.5433 -0.199593 0)
(13.6029 -0.200363 0)
(13.6631 -0.201137 -8.31515e-22)
(13.7237 -0.201915 0)
(13.7848 -0.202698 0)
(13.8464 -0.203486 0)
(13.9085 -0.204279 -9.68265e-23)
(13.9711 -0.205077 0)
(14.0342 -0.205881 0)
(14.0978 -0.20669 0)
(14.1619 -0.207505 6.72716e-22)
(14.2265 -0.208327 0)
(14.2917 -0.209155 0)
(14.3575 -0.209989 0)
(14.4237 -0.21083 1.47981e-21)
(14.4905 -0.211679 0)
(14.5579 -0.212534 0)
(14.6259 -0.213396 0)
(14.6944 -0.214266 2.32738e-21)
(14.7635 -0.215144 0)
(14.8332 -0.216029 0)
(14.9035 -0.216922 0)
(14.9744 -0.217823 1.6088e-21)
(15.0459 -0.218732 1.72477e-21)
(15.118 -0.219649 0)
(15.1907 -0.220574 0)
(15.2641 -0.221507 0)
(15.3382 -0.222448 4.39882e-21)
(15.4128 -0.223398 0)
(15.4882 -0.224356 0)
(15.5642 -0.225322 0)
(15.6409 -0.226297 5.39996e-21)
(15.7183 -0.22728 0)
(15.7964 -0.228272 0)
(15.8752 -0.229272 0)
(15.9547 -0.230282 6.45532e-21)
(16.0349 -0.2313 0)
(16.1159 -0.232326 0)
(16.1976 -0.233361 0)
(16.2801 -0.234405 7.56855e-21)
(16.3634 -0.235457 0)
(16.4474 -0.236518 0)
(16.5322 -0.237587 0)
(16.6178 -0.238664 4.37253e-21)
(16.7043 -0.239751 0)
(16.7915 -0.240845 0)
(16.8796 -0.241948 0)
(16.9686 -0.243059 4.9936e-21)
(17.0584 -0.244177 5.15316e-21)
(17.149 -0.245302 0)
(17.2406 -0.246434 0)
(17.333 -0.247572 0)
(17.4263 -0.248716 5.82059e-21)
(17.5206 -0.249863 0)
(17.6157 -0.251015 0)
(17.7118 -0.252168 0)
(17.8089 -0.253322 1.30533e-20)
(17.9069 -0.254476 0)
(18.0058 -0.25563 0)
(18.1058 -0.256784 0)
(18.2067 -0.257938 1.4546e-20)
(18.3086 -0.259087 0)
(18.4115 -0.26023 -7.65536e-21)
(18.5155 -0.261361 0)
(18.6204 -0.262479 1.60879e-20)
(18.7264 -0.263575 0)
(18.8334 -0.264648 0)
(18.9414 -0.265692 0)
(19.0505 -0.266702 1.76635e-20)
(19.1606 -0.26767 0)
(19.2717 -0.268589 0)
(19.3838 -0.269454 -9.44371e-21)
(19.4969 -0.270254 0)
(19.611 -0.27098 9.86533e-21)
(19.726 -0.271622 0)
(19.842 -0.272165 0)
(19.9588 -0.272595 1.05266e-20)
(20.0765 -0.272893 1.07552e-20)
(20.1951 -0.273041 0)
(20.3143 -0.273015 0)
(20.4342 -0.272793 0)
(20.5547 -0.272345 1.17105e-20)
(20.6757 -0.271644 0)
(20.7971 -0.270656 0)
(20.9187 -0.26935 0)
(21.0405 -0.267685 2.54595e-20)
(21.1621 -0.265628 0)
(21.2835 -0.263131 0)
(21.4045 -0.260161 0)
(21.5247 -0.256668 2.75697e-20)
(21.6439 -0.252621 0)
(21.7619 -0.247978 -1.43142e-20)
(21.8784 -0.242709 0)
(21.9929 -0.236789 2.96572e-20)
(22.1052 -0.230208 -3.0171e-20)
(22.2149 -0.222951 1.53305e-20)
(22.3216 -0.215053 0)
(22.4249 -0.206513 1.58201e-20)
(22.5246 -0.197388 0)
(22.6202 -0.187741 1.62657e-20)
(22.7115 -0.177653 -1.65034e-20)
(22.7982 -0.167292 1.6711e-20)
(22.8799 -0.156477 0)
(10.0001 -0.0033836 0)
(10.0012 -0.0101141 0)
(10.0036 -0.0167788 0)
(10.0072 -0.0233733 0)
(10.012 -0.0298939 0)
(10.018 -0.0363315 0)
(10.0252 -0.0426758 0)
(10.0335 -0.0489179 0)
(10.0429 -0.0550501 0)
(10.0535 -0.0610656 0)
(10.0652 -0.0669581 0)
(10.078 -0.0727216 0)
(10.0919 -0.0783512 0)
(10.1069 -0.0838425 0)
(10.1229 -0.0891919 0)
(10.1399 -0.0943966 0)
(10.1579 -0.0994542 0)
(10.1768 -0.104363 0)
(10.1967 -0.109123 0)
(10.2176 -0.113734 0)
(10.2393 -0.118194 0)
(10.262 -0.122507 0)
(10.2855 -0.126672 0)
(10.3098 -0.130692 0)
(10.3349 -0.134569 0)
(10.3609 -0.138306 0)
(10.3876 -0.141904 0)
(10.415 -0.145369 0)
(10.4432 -0.148702 0)
(10.4721 -0.151908 0)
(10.5016 -0.15499 0)
(10.5319 -0.157953 0)
(10.5627 -0.1608 0)
(10.5942 -0.163536 0)
(10.6264 -0.166164 0)
(10.6591 -0.168689 0)
(10.6924 -0.171116 0)
(10.7263 -0.173448 0)
(10.7607 -0.175689 0)
(10.7956 -0.177843 0)
(10.8311 -0.179915 0)
(10.8671 -0.181909 0)
(10.9036 -0.183828 0)
(10.9406 -0.185675 0)
(10.978 -0.187456 0)
(11.016 -0.189173 0)
(11.0544 -0.190829 0)
(11.0932 -0.192428 0)
(11.1325 -0.193974 0)
(11.1722 -0.195468 0)
(11.2124 -0.196915 0)
(11.253 -0.198317 0)
(11.294 -0.199677 0)
(11.3354 -0.200997 0)
(11.3772 -0.20228 0)
(11.4194 -0.203528 0)
(11.462 -0.204743 0)
(11.505 -0.205929 0)
(11.5485 -0.207086 0)
(11.5923 -0.208216 0)
(11.6364 -0.209323 0)
(11.681 -0.210406 0)
(11.726 -0.211469 0)
(11.7713 -0.212513 0)
(11.817 -0.213539 0)
(11.8631 -0.214548 0)
(11.9096 -0.215543 0)
(11.9565 -0.216524 0)
(12.0037 -0.217492 0)
(12.0513 -0.218449 0)
(12.0993 -0.219396 0)
(12.1477 -0.220334 0)
(12.1964 -0.221264 0)
(12.2456 -0.222187 0)
(12.2951 -0.223103 0)
(12.345 -0.224014 0)
(12.3953 -0.22492 0)
(12.446 -0.225823 0)
(12.4971 -0.226722 0)
(12.5486 -0.227619 0)
(12.6005 -0.228514 0)
(12.6527 -0.229409 0)
(12.7054 -0.230302 0)
(12.7585 -0.231196 0)
(12.812 -0.232091 0)
(12.8659 -0.232986 0)
(12.9202 -0.233883 0)
(12.975 -0.234782 0)