/*--------------------------------*- C++ -*----------------------------------*\
  =========                 |
  \\      /  F ield         | OpenFOAM: The Open Source CFD Toolbox
   \\    /   O peration     | Website:  https://openfoam.org
    \\  /    A nd           | Version:  8
     \\/     M anipulation  |
\*---------------------------------------------------------------------------*/
FoamFile
{
    version     2.0;
    format      ascii;
    class       volScalarField;
    location    "100";
    object      epsilon;
}
// * * * * * * * * * * * * * * * * * * * * * * * * * * * * * * * * * * * * * //

dimensions      [0 2 -3 0 0 0 0];

internalField   nonuniform List<scalar> 
65000
(
14.5687
14.0272
13.5151
13.0303
12.5711
12.1355
11.7223
11.3298
10.9569
10.6022
10.2648
9.94332
9.63711
9.34507
9.06652
8.80054
8.54653
8.30372
8.07156
7.84939
7.63674
7.43304
7.23784
7.05068
6.87115
6.69885
6.5334
6.37448
6.22173
6.07488
5.9336
5.79767
5.66676
5.54073
5.41924
5.30218
5.18925
5.08036
4.97522
4.87377
4.77574
4.68109
4.58955
4.50111
4.41552
4.33277
4.25263
4.17511
4.09998
4.02725
3.95673
3.88842
3.82216
3.75792
3.69558
3.63509
3.57639
3.51938
3.46403
3.41025
3.35799
3.30723
3.25782
3.2099
3.16311
3.11783
3.07345
3.03065
2.98849
2.94797
2.90784
2.86937
2.83109
2.79445
2.75782
2.72278
2.68764
2.654
2.62024
2.58784
2.5554
2.52418
2.49311
2.46309
2.4335
2.40478
2.37683
2.34957
2.32337
2.29771
2.27335
2.24934
2.2268
2.20439
2.18352
2.16257
2.14313
2.12343
2.10513
2.08644
2.06897
2.0511
2.03422
2.01703
2.00057
1.984
1.96792
1.95194
1.93631
1.9209
1.90586
1.89105
1.87673
1.86255
1.84901
1.83553
1.82279
1.81008
1.79811
1.7862
1.775
1.7639
1.75341
1.74313
1.73331
1.7238
1.7146
1.70574
1.6971
1.68876
1.68057
1.67262
1.66473
1.65708
1.64939
1.64192
1.63441
1.6271
1.61977
1.61272
1.60562
1.59894
1.59216
1.58594
1.57961
1.57378
1.56799
1.56252
1.55724
1.55219
1.54736
1.54265
1.5383
1.53385
1.52997
1.5262
1.52292
1.52037
1.51842
1.51679
1.51459
1.51347
1.51035
1.51067
1.51249
1.51705
1.52218
1.5296
1.53732
1.54694
1.55678
1.56818
1.57959
1.59256
1.60521
1.61963
1.63379
1.64946
1.66577
1.68237
1.70085
1.71833
1.73775
1.75617
1.7755
1.7938
1.8137
1.83014
1.85049
1.86691
1.88323
1.90423
1.91531
1.93662
1.94921
1.9546
1.95194
1.94887
1.94815
1.94662
14.5687
14.0272
13.5151
13.0303
12.571
12.1355
11.7223
11.3298
10.9569
10.6023
10.2648
9.94337
9.63714
9.34513
9.06656
8.8006
8.54659
8.30379
8.07163
7.84947
7.63683
7.43312
7.23795
7.05077
6.87128
6.69894
6.53355
6.37458
6.22189
6.07499
5.93377
5.79779
5.66694
5.54085
5.41943
5.30232
5.18944
5.08051
4.97541
4.87394
4.77593
4.68126
4.58974
4.50129
4.4157
4.33296
4.25281
4.17531
4.10015
4.02746
3.9569
3.88863
3.82232
3.75812
3.69574
3.63529
3.57654
3.51957
3.46417
3.41044
3.35813
3.30743
3.25796
3.21009
3.16324
3.11803
3.07359
3.03085
2.98864
2.94817
2.90797
2.86957
2.8312
2.79464
2.75789
2.72294
2.68766
2.65413
2.62021
2.58798
2.55539
2.52441
2.49322
2.46355
2.43388
2.40562
2.37765
2.35095
2.32483
2.29975
2.27556
2.2521
2.2298
2.20789
2.1873
2.16676
2.14762
2.12825
2.11023
2.09183
2.07464
2.05702
2.04044
2.02348
2.0074
1.99103
1.97544
1.95962
1.94457
1.9293
1.91486
1.90017
1.8864
1.87234
1.85924
1.84588
1.83346
1.8208
1.80909
1.79714
1.78612
1.77489
1.76452
1.75399
1.74421
1.73434
1.7251
1.71578
1.70703
1.69816
1.68979
1.68132
1.67323
1.6651
1.65721
1.6494
1.6417
1.63421
1.62675
1.61962
1.61251
1.60579
1.59913
1.59285
1.58667
1.58081
1.57508
1.56961
1.56427
1.55923
1.55421
1.5496
1.54493
1.54063
1.53644
1.53265
1.52918
1.52653
1.52465
1.52284
1.52124
1.5199
1.51678
1.5168
1.51893
1.5229
1.52848
1.5352
1.54362
1.55274
1.56352
1.57463
1.58702
1.5998
1.61317
1.62761
1.64201
1.65803
1.67422
1.69128
1.70977
1.7272
1.7473
1.76485
1.78545
1.80256
1.82357
1.83954
1.85986
1.87769
1.89194
1.91629
1.92519
1.94289
1.96221
1.97177
1.97025
1.96648
1.97636
1.96902
14.5687
14.0272
13.5151
13.0304
12.5711
12.1356
11.7223
11.3299
10.957
10.6023
10.2648
9.94346
9.63722
9.34524
9.06666
8.80073
8.54671
8.30394
8.07177
7.84965
7.637
7.43332
7.23814
7.05099
6.87149
6.69919
6.53378
6.37484
6.22215
6.07527
5.93405
5.79808
5.66724
5.54117
5.41974
5.30265
5.18976
5.08085
4.97574
4.87429
4.77626
4.68163
4.59008
4.50167
4.41605
4.33333
4.25318
4.17567
4.10054
4.02781
3.9573
3.88897
3.82274
3.75845
3.69617
3.63562
3.57699
3.51989
3.46463
3.41076
3.35859
3.30774
3.25842
3.21041
3.16371
3.11837
3.07407
3.03122
2.98913
2.94859
2.90852
2.87009
2.83185
2.79535
2.75876
2.72399
2.68893
2.65573
2.62212
2.59038
2.55821
2.52791
2.49724
2.46843
2.43937
2.41213
2.3848
2.35919
2.3337
2.30972
2.28609
2.26369
2.24185
2.22089
2.20066
2.18094
2.16208
2.1434
2.12564
2.1078
2.0909
2.07372
2.05752
2.04087
2.02528
2.0091
1.99409
1.97835
1.96392
1.94864
1.93479
1.92002
1.90675
1.89252
1.87986
1.86623
1.8542
1.8412
1.82982
1.81747
1.80675
1.79504
1.78493
1.77384
1.76429
1.75374
1.7447
1.73464
1.72602
1.71643
1.70811
1.69902
1.69089
1.68233
1.67432
1.66633
1.65848
1.651
1.64347
1.63644
1.62939
1.62276
1.61622
1.60996
1.6039
1.59789
1.59227
1.58652
1.58121
1.57578
1.57077
1.56573
1.56102
1.55623
1.55196
1.54768
1.54412
1.54095
1.53862
1.53661
1.5352
1.53391
1.53035
1.53035
1.5318
1.53617
1.54182
1.54882
1.55763
1.56652
1.57784
1.58826
1.60139
1.61326
1.62763
1.64108
1.65667
1.67176
1.6891
1.70547
1.72482
1.74205
1.76253
1.78059
1.80094
1.81939
1.83952
1.85731
1.87665
1.89614
1.90963
1.93557
1.94321
1.96163
1.98243
1.98263
1.98039
1.97792
1.99052
1.98477
14.5687
14.0273
13.5152
13.0304
12.5711
12.1356
11.7224
11.33
10.957
10.6024
10.2649
9.94358
9.63734
9.3454
9.06681
8.80093
8.54689
8.30418
8.07198
7.84992
7.63724
7.43363
7.23842
7.05133
6.8718
6.69956
6.53413
6.37525
6.22252
6.0757
5.93445
5.79854
5.66767
5.54164
5.42019
5.30314
5.19024
5.08136
4.97624
4.87481
4.77678
4.68216
4.59061
4.50221
4.4166
4.33388
4.25374
4.17622
4.1011
4.02837
3.95788
3.88954
3.82332
3.75902
3.69676
3.6362
3.57757
3.52049
3.46522
3.41137
3.35919
3.30836
3.25904
3.21102
3.16435
3.11897
3.07474
3.03182
2.98985
2.94922
2.90931
2.87082
2.83281
2.79628
2.76003
2.72531
2.69071
2.65767
2.62465
2.59322
2.56179
2.53194
2.50215
2.47391
2.44582
2.41924
2.39292
2.36803
2.34348
2.32025
2.29745
2.27579
2.25461
2.23438
2.21463
2.19565
2.17712
2.15917
2.14164
2.12454
2.10782
2.09139
2.07535
2.05947
2.04402
2.02861
2.01369
1.99874
1.98431
1.96982
1.95588
1.94186
1.92842
1.91489
1.902
1.88898
1.87668
1.86423
1.85254
1.84068
1.82959
1.81834
1.80781
1.79715
1.78715
1.77701
1.76751
1.75786
1.74881
1.73965
1.731
1.72233
1.71407
1.7059
1.698
1.69031
1.6828
1.67552
1.66844
1.66153
1.65487
1.64833
1.64204
1.63589
1.62993
1.62408
1.6186
1.61288
1.60791
1.60255
1.59766
1.59312
1.58826
1.58419
1.57981
1.57644
1.57205
1.56902
1.56487
1.56266
1.55901
1.55771
1.5533
1.55315
1.55276
1.55644
1.56126
1.56789
1.57557
1.58384
1.59406
1.60417
1.61635
1.62851
1.64196
1.65619
1.67078
1.68673
1.70307
1.72016
1.73855
1.75673
1.77618
1.79581
1.81529
1.83537
1.8557
1.87421
1.89506
1.91443
1.92979
1.95598
1.96321
1.98894
1.99176
1.99066
1.99047
2.00571
2.00263
1.99883
14.5687
14.0273
13.5152
13.0304
12.5712
12.1357
11.7225
11.33
10.9572
10.6025
10.2651
9.94375
9.63752
9.34561
9.06702
8.80119
8.54714
8.30448
8.07228
7.85027
7.63758
7.43403
7.2388
7.05178
6.87223
6.70005
6.53461
6.37577
6.22305
6.07626
5.93502
5.79913
5.66828
5.54226
5.42083
5.30379
5.19091
5.08203
4.97693
4.87551
4.77749
4.68288
4.59133
4.50294
4.41733
4.33464
4.25447
4.17699
4.10185
4.02915
3.95864
3.89033
3.82409
3.75982
3.69754
3.63701
3.57836
3.5213
3.46602
3.41218
3.36
3.30918
3.25985
3.21184
3.16517
3.11979
3.07556
3.03263
2.99067
2.95002
2.91015
2.87162
2.83367
2.79711
2.76095
2.7262
2.69173
2.65869
2.62585
2.59446
2.56327
2.53351
2.50401
2.47594
2.44821
2.42187
2.39595
2.37139
2.34727
2.32448
2.30208
2.28096
2.26012
2.24049
2.22102
2.20265
2.18431
2.16695
2.14954
2.13296
2.11629
2.10031
2.08424
2.06873
2.05315
2.03808
2.02293
2.00827
1.99353
1.97931
1.96499
1.95122
1.9374
1.92407
1.91082
1.89796
1.88532
1.87297
1.86095
1.84915
1.83771
1.82647
1.81558
1.80489
1.79451
1.78434
1.77446
1.7648
1.75539
1.74625
1.7373
1.72869
1.72023
1.71213
1.70415
1.69654
1.68901
1.68186
1.67474
1.66798
1.6612
1.65482
1.64835
1.64233
1.63619
1.63052
1.62475
1.61942
1.61406
1.60908
1.60408
1.59948
1.59483
1.59073
1.58658
1.58335
1.58021
1.57768
1.57558
1.57382
1.57251
1.57223
1.56766
1.56566
1.56417
1.5671
1.57125
1.57819
1.58493
1.59358
1.60267
1.61332
1.6245
1.63741
1.65039
1.66533
1.68019
1.69637
1.71351
1.73028
1.74946
1.7672
1.78718
1.80655
1.82678
1.84656
1.86824
1.88677
1.90866
1.92933
1.94489
1.97286
1.98119
2.00383
2.02181
2.0366
2.03371
2.03007
2.027
2.02276
14.5687
14.0273
13.5152
13.0305
12.5712
12.1358
11.7226
11.3302
10.9573
10.6027
10.2652
9.94395
9.63774
9.34586
9.0673
8.80149
8.54747
8.30484
8.07267
7.85069
7.63804
7.4345
7.23932
7.05231
6.87281
6.70063
6.53524
6.37641
6.22373
6.07694
5.93575
5.79986
5.66906
5.54303
5.42165
5.30459
5.19176
5.08287
4.97782
4.87638
4.7784
4.68378
4.59226
4.50387
4.41828
4.33558
4.25544
4.17796
4.10282
4.03013
3.95962
3.89132
3.82508
3.76083
3.69853
3.63802
3.57936
3.52231
3.46701
3.4132
3.36099
3.31019
3.26085
3.21285
3.16617
3.12078
3.07656
3.03359
2.99165
2.95093
2.91108
2.87242
2.83452
2.79776
2.76165
2.72664
2.69223
2.65887
2.6261
2.59436
2.56327
2.53317
2.50383
2.47548
2.44797
2.42146
2.39585
2.37125
2.34753
2.32482
2.30288
2.28192
2.26155
2.24212
2.22307
2.20485
2.18685
2.16956
2.15235
2.13571
2.1191
2.10295
2.08679
2.07104
2.05529
2.03992
2.02456
2.00962
1.9947
1.98022
1.96582
1.95186
1.93802
1.92462
1.91141
1.89858
1.88599
1.87375
1.86176
1.85009
1.83866
1.82753
1.81665
1.80603
1.79566
1.78554
1.77567
1.76607
1.7567
1.74764
1.7388
1.73028
1.72198
1.714
1.70624
1.69878
1.69151
1.68451
1.6777
1.67109
1.66468
1.65842
1.65237
1.64646
1.64072
1.63525
1.6298
1.62474
1.61973
1.6149
1.61046
1.60586
1.60175
1.5976
1.59411
1.59064
1.58775
1.58515
1.58276
1.58077
1.57893
1.57683
1.57386
1.57185
1.57025
1.57251
1.57609
1.58262
1.58897
1.59742
1.60598
1.61646
1.62713
1.63994
1.65271
1.66765
1.68267
1.69894
1.71643
1.73329
1.75291
1.77056
1.79126
1.81026
1.83164
1.85132
1.87385
1.89391
1.91524
1.93933
1.95458
1.98295
1.99924
2.01396
2.04551
2.04775
2.05261
2.05675
2.05023
2.04634
14.5687
14.0273
13.5153
13.0305
12.5713
12.1359
11.7227
11.3303
10.9574
10.6029
10.2654
9.94421
9.638
9.34618
9.06763
8.80187
8.54788
8.30528
8.07315
7.8512
7.63859
7.43508
7.23994
7.05296
6.87349
6.70135
6.53598
6.3772
6.22453
6.0778
5.93661
5.80077
5.66997
5.544
5.42262
5.3056
5.19278
5.08392
4.97887
4.87745
4.7795
4.68487
4.5934
4.50499
4.41944
4.33672
4.25662
4.17912
4.10402
4.03131
3.96082
3.89251
3.82628
3.76203
3.69973
3.63923
3.58055
3.52352
3.46821
3.4144
3.36219
3.31139
3.26205
3.21404
3.16737
3.12195
3.07775
3.03473
2.99282
2.95201
2.9122
2.87342
2.83555
2.79862
2.76254
2.72733
2.69294
2.65936
2.62662
2.59465
2.56358
2.53327
2.50397
2.47541
2.44797
2.42127
2.39575
2.37098
2.34735
2.32446
2.30261
2.28145
2.26114
2.24146
2.2224
2.20391
2.1858
2.16817
2.15078
2.13376
2.11688
2.10033
2.08387
2.06772
2.05166
2.03592
2.02031
2.00504
1.98996
1.97524
1.96078
1.94668
1.93288
1.91945
1.90635
1.8936
1.88118
1.8691
1.85734
1.84587
1.83473
1.82381
1.81325
1.80283
1.79283
1.78289
1.77342
1.764
1.75504
1.74618
1.73774
1.72945
1.72153
1.71381
1.70639
1.69921
1.69226
1.68557
1.67903
1.67278
1.66656
1.66071
1.65476
1.64926
1.6436
1.63837
1.63311
1.62805
1.62328
1.61842
1.61402
1.60954
1.60535
1.60117
1.59735
1.59372
1.59051
1.58794
1.58558
1.58408
1.58296
1.58158
1.58034
1.57925
1.57473
1.57425
1.57635
1.58061
1.58677
1.59377
1.60265
1.61209
1.62347
1.63541
1.64925
1.66349
1.67983
1.69566
1.71447
1.73116
1.75205
1.76952
1.79164
1.81032
1.83309
1.85301
1.8763
1.89755
1.92001
1.94406
1.96368
1.98864
2.01133
2.02669
2.0578
2.07091
2.07211
2.07801
2.08215
2.07279
14.5687
14.0274
13.5153
13.0306
12.5714
12.136
11.7228
11.3305
10.9576
10.6031
10.2657
9.94451
9.63831
9.34655
9.06802
8.80232
8.54835
8.30581
8.0737
7.85181
7.63922
7.43578
7.24066
7.05375
6.87429
6.70222
6.53685
6.37815
6.22547
6.07882
5.93762
5.80185
5.67104
5.54514
5.42374
5.3068
5.19395
5.08516
4.98009
4.87873
4.78076
4.68618
4.5947
4.50632
4.42078
4.33808
4.25798
4.18049
4.1054
4.03269
3.96221
3.89392
3.82768
3.76345
3.70112
3.64065
3.58194
3.52495
3.4696
3.41582
3.36358
3.31279
3.26344
3.21544
3.16876
3.12334
3.07913
3.03611
2.9942
2.95337
2.91357
2.87476
2.83688
2.79992
2.76382
2.72854
2.6941
2.66042
2.62758
2.59544
2.56421
2.53364
2.50405
2.47511
2.44724
2.42003
2.39392
2.36851
2.34415
2.32052
2.29783
2.27589
2.2547
2.23425
2.21433
2.1951
2.17622
2.15794
2.13987
2.1223
2.10486
2.08785
2.07092
2.05441
2.03796
2.02194
2.00599
1.99048
1.97513
1.96017
1.94551
1.93116
1.91724
1.90358
1.8904
1.87748
1.86503
1.85284
1.8411
1.82959
1.81852
1.80763
1.79716
1.78684
1.77692
1.76712
1.75773
1.74846
1.73958
1.73087
1.7225
1.71437
1.70652
1.69896
1.69167
1.68461
1.67787
1.67122
1.66493
1.65865
1.65267
1.64672
1.64093
1.63531
1.62971
1.62439
1.61902
1.614
1.60893
1.60423
1.59944
1.59509
1.5905
1.5864
1.58198
1.57819
1.57438
1.57126
1.56852
1.56707
1.56498
1.56285
1.56206
1.5578
1.55807
1.55749
1.5616
1.56619
1.57407
1.58108
1.59126
1.60055
1.61332
1.62487
1.64039
1.65409
1.67216
1.68782
1.70786
1.72533
1.74654
1.76597
1.78748
1.80903
1.83067
1.85358
1.87627
1.89932
1.92308
1.94678
1.97006
1.99325
2.01904
2.03697
2.06146
2.09102
2.09073
2.08737
2.08615
2.08315
14.5687
14.0274
13.5153
13.0307
12.5714
12.1362
11.7229
11.3307
10.9578
10.6034
10.266
9.94487
9.63868
9.34699
9.06848
8.80285
8.5489
8.30643
8.07435
7.85253
7.63997
7.43659
7.2415
7.05465
6.87523
6.70322
6.53788
6.37923
6.22659
6.07998
5.93881
5.80309
5.67229
5.54645
5.42505
5.30817
5.19531
5.08659
4.98151
4.88021
4.78223
4.6877
4.59621
4.50786
4.42232
4.33964
4.25956
4.18207
4.107
4.03429
3.96383
3.89552
3.8293
3.76506
3.70275
3.64227
3.58357
3.52657
3.47122
3.41744
3.3652
3.31441
3.26505
3.21705
3.17036
3.12495
3.08073
3.03773
2.9958
2.95501
2.9152
2.87643
2.83855
2.80163
2.76551
2.73026
2.69576
2.66205
2.62907
2.5968
2.56529
2.53443
2.5044
2.47497
2.44645
2.41852
2.39153
2.36516
2.33968
2.31492
2.2909
2.26767
2.24502
2.22321
2.20183
2.18124
2.16102
2.14145
2.12226
2.10353
2.08523
2.06725
2.04967
2.03241
2.01542
1.99889
1.98245
1.96664
1.95078
1.93567
1.9205
1.90606
1.89168
1.87788
1.86437
1.85122
1.83859
1.82607
1.81429
1.80238
1.79135
1.78006
1.76965
1.75897
1.74906
1.73897
1.72953
1.71999
1.71102
1.70204
1.69354
1.68519
1.67719
1.66949
1.66202
1.65488
1.64798
1.64122
1.63478
1.62831
1.62211
1.61592
1.60982
1.60392
1.59797
1.59235
1.58671
1.58139
1.57618
1.5712
1.56641
1.56174
1.55723
1.55293
1.54884
1.54502
1.542
1.53879
1.53712
1.53494
1.53324
1.5304
1.52878
1.52764
1.53005
1.53348
1.5407
1.54707
1.55664
1.5652
1.57686
1.58731
1.60124
1.61354
1.62988
1.64426
1.66283
1.6795
1.69987
1.71879
1.74046
1.76138
1.78392
1.80631
1.82982
1.85258
1.87754
1.90009
1.92565
1.94912
1.97369
1.99734
2.023
2.04284
2.07052
2.08966
2.09613
2.10819
2.103
2.10734
14.5687
14.0275
13.5154
13.0308
12.5716
12.1363
11.7231
11.3309
10.9581
10.6037
10.2663
9.94525
9.63914
9.34747
9.06903
8.80343
8.54956
8.30712
8.07513
7.85333
7.64086
7.4375
7.2425
7.05566
6.87633
6.70433
6.53909
6.38043
6.22789
6.08127
5.9402
5.80447
5.67376
5.5479
5.4266
5.30968
5.19693
5.08815
4.98319
4.88182
4.78396
4.68934
4.59799
4.50954
4.42415
4.34134
4.26142
4.18379
4.10889
4.03603
3.96574
3.89727
3.83123
3.76682
3.70469
3.64403
3.58551
3.52834
3.47315
3.41922
3.36711
3.31619
3.26694
3.21884
3.17222
3.12674
3.0826
3.03955
2.99769
2.95689
2.91717
2.87843
2.84069
2.80383
2.7679
2.73277
2.69849
2.66494
2.63218
2.60008
2.56876
2.538
2.50808
2.4786
2.45005
2.42183
2.39463
2.36769
2.34182
2.31616
2.29159
2.2672
2.24388
2.22072
2.19859
2.17656
2.15553
2.13453
2.11453
2.09449
2.07539
2.05628
2.03798
2.01979
2.00224
1.98498
1.96814
1.9518
1.93573
1.92024
1.90501
1.89033
1.87598
1.86206
1.84861
1.83542
1.82281
1.81032
1.79847
1.78659
1.7754
1.76406
1.75341
1.74252
1.73231
1.72186
1.71203
1.70203
1.69256
1.68309
1.67404
1.66518
1.65664
1.64845
1.64048
1.6329
1.62556
1.61845
1.61168
1.60492
1.59857
1.5921
1.586
1.57983
1.5739
1.5681
1.56245
1.55702
1.55183
1.54671
1.54192
1.53717
1.53292
1.52885
1.52553
1.52252
1.51983
1.51846
1.51669
1.5151
1.51345
1.51049
1.51135
1.51371
1.51824
1.52333
1.53093
1.53831
1.54865
1.55786
1.57055
1.58134
1.59607
1.60862
1.62517
1.64001
1.65823
1.67582
1.69564
1.71583
1.73734
1.75935
1.78257
1.80538
1.83006
1.85308
1.8783
1.9021
1.92645
1.95121
1.97581
1.99798
2.0267
2.04285
2.07727
2.08278
2.08106
2.08261
2.08365
2.08367
14.5687
14.0275
13.5155
13.0309
12.5717
12.1364
11.7234
11.3312
10.9584
10.604
10.2667
9.94566
9.63966
9.348
9.06967
8.80408
8.55033
8.30789
8.07602
7.85423
7.64187
7.43852
7.24363
7.05681
6.87758
6.70559
6.54045
6.38181
6.22935
6.08275
5.94175
5.80604
5.67541
5.54955
5.42832
5.31141
5.19873
5.08994
4.98505
4.88366
4.78588
4.69124
4.59996
4.51148
4.42615
4.34333
4.26344
4.18582
4.11092
4.03809
3.96778
3.89936
3.83328
3.76892
3.70675
3.64614
3.58759
3.53044
3.47524
3.4213
3.36921
3.31826
3.26904
3.22088
3.17433
3.12877
3.0847
3.04158
2.99981
2.95897
2.91935
2.88062
2.84298
2.80623
2.7704
2.73549
2.70132
2.6681
2.63545
2.60379
2.57256
2.5423
2.51243
2.48346
2.45489
2.42713
2.39981
2.37318
2.34707
2.32155
2.29657
2.27213
2.24823
2.22484
2.20195
2.17959
2.15769
2.1363
2.11537
2.09495
2.07497
2.05554
2.0365
2.01807
1.99998
1.98255
1.96543
1.94898
1.93286
1.91735
1.90225
1.88762
1.8735
1.85974
1.84651
1.83356
1.82111
1.8089
1.79711
1.78549
1.77426
1.7631
1.75232
1.74154
1.73112
1.7207
1.71059
1.70057
1.69078
1.68124
1.67186
1.66288
1.65399
1.64563
1.63731
1.62955
1.62185
1.6146
1.60751
1.60067
1.59409
1.58762
1.58145
1.57533
1.56954
1.56382
1.55845
1.55309
1.54828
1.54319
1.53896
1.53444
1.53079
1.52759
1.52481
1.52164
1.51863
1.51652
1.51424
1.51077
1.50702
1.50846
1.51157
1.51666
1.52268
1.52944
1.53788
1.5459
1.55638
1.56551
1.57764
1.58801
1.60168
1.61375
1.62907
1.64357
1.66064
1.67826
1.69707
1.71785
1.73851
1.76145
1.78424
1.80783
1.83243
1.85611
1.88099
1.90541
1.92943
1.9537
1.97904
1.99936
2.02973
2.04282
2.07824
2.08307
2.08249
2.09593
2.09271
2.0897
14.5688
14.0275
13.5156
13.031
12.5719
12.1366
11.7236
11.3314
10.9588
10.6044
10.2672
9.94614
9.64024
9.3486
9.07039
8.80481
8.55118
8.30876
8.077
7.85524
7.643
7.43967
7.2449
7.05809
6.87898
6.707
6.54196
6.38334
6.23098
6.0844
5.94349
5.80779
5.67725
5.55139
5.43025
5.31333
5.20073
5.09194
4.98712
4.88573
4.788
4.69337
4.60212
4.51367
4.42835
4.34556
4.26567
4.18809
4.11318
4.04038
3.97006
3.90167
3.83558
3.77124
3.70906
3.64847
3.58992
3.53276
3.47758
3.42362
3.37155
3.32056
3.27139
3.22316
3.17667
3.13104
3.08704
3.04383
3.00215
2.96121
2.92169
2.88288
2.84537
2.80855
2.7729
2.73794
2.70399
2.67077
2.63839
2.60678
2.57586
2.54573
2.51615
2.48739
2.45908
2.43158
2.40446
2.37813
2.35215
2.32692
2.302
2.27782
2.2539
2.23074
2.20777
2.18558
2.16352
2.14228
2.12112
2.10082
2.08057
2.0612
2.04187
2.02345
2.00504
1.98758
1.97011
1.95362
1.93711
1.92158
1.90605
1.89145
1.87689
1.86319
1.84956
1.83669
1.82389
1.81176
1.79968
1.78815
1.77669
1.76563
1.75469
1.74401
1.73351
1.72321
1.7131
1.70324
1.69352
1.68419
1.67492
1.66618
1.65745
1.64936
1.64118
1.63378
1.62619
1.61932
1.61242
1.6059
1.59963
1.59341
1.5877
1.58173
1.57654
1.57093
1.56596
1.56093
1.55615
1.55173
1.54707
1.54279
1.53925
1.53497
1.5309
1.52787
1.52329
1.52057
1.51656
1.51481
1.51003
1.51029
1.51227
1.51802
1.52463
1.53311
1.5425
1.55236
1.5634
1.57393
1.586
1.59707
1.6102
1.62232
1.63698
1.65108
1.66764
1.68464
1.70326
1.72334
1.74418
1.76644
1.78961
1.81267
1.8377
1.86063
1.88668
1.9086
1.93592
1.95535
1.98442
2.00196
2.03049
2.0489
2.07407
2.09474
2.11939
2.11807
2.12112
2.12398
14.5688
14.0276
13.5157
13.0311
12.5721
12.1368
11.7239
11.3317
10.9591
10.6048
10.2677
9.9467
9.64088
9.34929
9.07116
8.80565
8.5521
8.30976
8.07809
7.85639
7.64424
7.44097
7.24629
7.05954
6.88052
6.70859
6.54365
6.38505
6.2328
6.08623
5.94544
5.80973
5.67931
5.55343
5.43241
5.31547
5.20298
5.09416
4.98945
4.88802
4.79039
4.69572
4.60456
4.51608
4.43083
4.34801
4.26819
4.19058
4.11573
4.0429
3.97264
3.9042
3.83818
3.77378
3.71168
3.651
3.59254
3.5353
3.48021
3.42615
3.37418
3.32308
3.27401
3.22567
3.17929
3.13352
3.08965
3.04629
3.00475
2.96364
2.92428
2.88529
2.84797
2.81095
2.77552
2.74036
2.70669
2.67329
2.64123
2.6095
2.57891
2.54875
2.5195
2.49083
2.46282
2.43557
2.40873
2.3828
2.35708
2.33241
2.30777
2.28425
2.26063
2.23822
2.21554
2.19419
2.17237
2.15203
2.13103
2.11159
2.09139
2.0728
2.05337
2.03557
2.0169
1.99989
1.98198
1.96578
1.94868
1.93332
1.91706
1.90257
1.8872
1.87358
1.85911
1.84631
1.83272
1.82066
1.80789
1.79641
1.78441
1.77334
1.76205
1.75127
1.7406
1.73014
1.71992
1.7099
1.70003
1.69052
1.68116
1.67203
1.66342
1.65469
1.64674
1.63871
1.63114
1.62386
1.61664
1.60994
1.60305
1.59681
1.59026
1.5844
1.57813
1.57262
1.56654
1.56133
1.55546
1.55052
1.54517
1.5405
1.53621
1.53209
1.52887
1.52586
1.52385
1.52173
1.52024
1.51902
1.51469
1.51471
1.51607
1.52221
1.52907
1.53904
1.54873
1.56019
1.57113
1.58287
1.59442
1.60623
1.61864
1.63116
1.64501
1.65927
1.67515
1.69199
1.71028
1.72981
1.75059
1.77223
1.7951
1.81797
1.84219
1.86512
1.89064
1.91171
1.93949
1.95749
1.98669
2.00432
2.03057
2.05182
2.07282
2.09383
2.12066
2.12115
2.118
2.11622
14.5688
14.0276
13.5158
13.0313
12.5723
12.1371
11.7242
11.3321
10.9596
10.6053
10.2683
9.94733
9.64157
9.35008
9.07202
8.8066
8.55313
8.31088
8.07928
7.85768
7.6456
7.44244
7.24781
7.06117
6.8822
6.71038
6.54549
6.387
6.23478
6.08831
5.94755
5.81194
5.68154
5.55576
5.43475
5.3179
5.20541
5.09668
4.99196
4.89063
4.79297
4.6984
4.6072
4.51882
4.43351
4.3508
4.27091
4.1934
4.11848
4.04575
3.97541
3.90708
3.84096
3.77667
3.71446
3.65391
3.59532
3.53822
3.48297
3.42908
3.37694
3.32601
3.27675
3.2286
3.18201
3.13645
3.09234
3.04919
3.00742
2.96652
2.92691
2.88812
2.85054
2.81371
2.77801
2.74301
2.70907
2.67578
2.64346
2.61177
2.58094
2.55079
2.52137
2.49267
2.4646
2.43731
2.41056
2.38463
2.35917
2.33456
2.3104
2.28706
2.26414
2.24204
2.22028
2.19937
2.17868
2.15887
2.13914
2.12032
2.10146
2.0835
2.06542
2.04824
2.03087
2.0144
1.99774
1.98193
1.96601
1.95088
1.93573
1.92133
1.90699
1.89337
1.87983
1.86701
1.85423
1.84215
1.83008
1.81864
1.80721
1.7963
1.78543
1.77496
1.76454
1.7545
1.74445
1.73485
1.72513
1.71597
1.70665
1.69792
1.68909
1.68077
1.67253
1.66457
1.65701
1.64933
1.64238
1.63507
1.6284
1.62173
1.61508
1.60904
1.60258
1.59682
1.59078
1.5854
1.57948
1.57465
1.5691
1.56427
1.55931
1.55452
1.55028
1.5467
1.54316
1.5409
1.5381
1.5357
1.53176
1.53042
1.52969
1.5341
1.53973
1.54887
1.55722
1.56792
1.57768
1.58884
1.59951
1.61097
1.62281
1.63524
1.64878
1.66315
1.67884
1.6958
1.71392
1.73341
1.75401
1.77529
1.79812
1.82011
1.84473
1.86637
1.89236
1.91312
1.93937
1.96056
1.98415
2.00901
2.02759
2.05474
2.07405
2.0926
2.12376
2.12919
2.12732
2.12433
14.5688
14.0277
13.5159
13.0315
12.5725
12.1374
11.7245
11.3325
10.96
10.6058
10.2689
9.94803
9.64235
9.35095
9.07297
8.80766
8.55426
8.31213
8.08061
7.85912
7.64711
7.44407
7.24951
7.06298
6.88408
6.71237
6.54753
6.38914
6.23698
6.09061
5.94989
5.81437
5.68401
5.55832
5.43734
5.32057
5.20811
5.09946
4.99474
4.89349
4.79583
4.70133
4.61012
4.52181
4.4365
4.35384
4.27394
4.19648
4.12154
4.04886
3.97849
3.91021
3.84405
3.77983
3.71756
3.65709
3.59841
3.54141
3.48606
3.43227
3.38001
3.3292
3.27982
3.23178
3.18507
3.1396
3.09538
3.0523
3.0104
2.96955
2.9298
2.89101
2.85324
2.81635
2.78041
2.74526
2.71099
2.67743
2.64468
2.61259
2.58127
2.55057
2.5206
2.49126
2.46263
2.43466
2.40741
2.38084
2.35502
2.32988
2.30555
2.28185
2.259
2.23674
2.21531
2.19443
2.1743
2.15469
2.1357
2.11722
2.0992
2.08166
2.06447
2.0477
2.03122
2.01511
1.9993
1.98377
1.96864
1.95372
1.93929
1.92504
1.91133
1.89781
1.88479
1.87202
1.85967
1.84761
1.83587
1.82442
1.81323
1.8023
1.79157
1.78108
1.77073
1.76064
1.75062
1.7409
1.73122
1.72186
1.71257
1.7036
1.69478
1.68622
1.67796
1.6698
1.66221
1.6544
1.64742
1.64004
1.63344
1.62666
1.62017
1.61411
1.60768
1.60222
1.59608
1.59094
1.58526
1.58063
1.57516
1.57144
1.5665
1.56284
1.5585
1.55516
1.55004
1.54685
1.54246
1.54055
1.53483
1.53423
1.5334
1.53703
1.5425
1.55045
1.55908
1.56878
1.5791
1.58937
1.60066
1.61136
1.62378
1.63569
1.64974
1.66381
1.67986
1.69667
1.71502
1.73439
1.75526
1.77621
1.79964
1.82091
1.84642
1.86742
1.8938
1.91501
1.94039
1.96326
1.98549
2.01137
2.03057
2.05554
2.07873
2.09515
2.12474
2.1314
2.1356
2.14468
14.5689
14.0278
13.5161
13.0317
12.5727
12.1377
11.7249
11.3329
10.9605
10.6064
10.2695
9.9488
9.64322
9.35191
9.07404
8.80882
8.55554
8.3135
8.08208
7.86071
7.64879
7.44586
7.2514
7.06498
6.88615
6.71455
6.54979
6.39151
6.23941
6.09314
5.95248
5.81706
5.68673
5.56114
5.44018
5.32352
5.21106
5.10251
4.99779
4.89663
4.79896
4.70455
4.61333
4.52508
4.43977
4.35716
4.27727
4.19983
4.12492
4.05224
3.98191
3.91361
3.84749
3.78324
3.72101
3.66051
3.60186
3.54483
3.48952
3.43569
3.38347
3.33262
3.28327
3.23517
3.18851
3.14296
3.0988
3.05562
3.01376
2.97277
2.93304
2.89405
2.85626
2.81909
2.78305
2.74752
2.71304
2.67899
2.64591
2.61321
2.58145
2.55004
2.51957
2.48946
2.46031
2.43154
2.40381
2.37649
2.35029
2.32448
2.29989
2.27564
2.25268
2.22998
2.2086
2.18737
2.16742
2.14752
2.12883
2.1101
2.09247
2.07473
2.05796
2.04107
2.025
2.00885
1.99341
1.97795
1.96309
1.94832
1.93405
1.91998
1.90634
1.89296
1.87995
1.86724
1.85485
1.84277
1.83093
1.81941
1.80806
1.79706
1.78614
1.7756
1.76507
1.75496
1.74481
1.73512
1.72538
1.71612
1.70682
1.69805
1.68923
1.68097
1.67269
1.6649
1.65723
1.64981
1.64274
1.63573
1.62902
1.62261
1.61605
1.61021
1.60394
1.59846
1.59269
1.58761
1.58217
1.57773
1.5728
1.5691
1.56462
1.5611
1.55721
1.5544
1.55124
1.54971
1.54634
1.54501
1.53942
1.53855
1.54005
1.54439
1.55051
1.55742
1.56614
1.57439
1.58481
1.59385
1.60557
1.61552
1.62858
1.64002
1.6547
1.66833
1.68483
1.70112
1.71966
1.73847
1.7593
1.77984
1.80293
1.82442
1.84876
1.87155
1.89497
1.92025
1.94104
1.96879
1.9877
2.01509
2.03635
2.05717
2.08624
2.09897
2.12624
2.14972
2.14968
2.14569
14.5689
14.0279
13.5162
13.0319
12.573
12.138
11.7253
11.3334
10.9611
10.6071
10.2703
9.94965
9.64418
9.35297
9.07523
8.81011
8.55695
8.31501
8.08373
7.86245
7.65066
7.44783
7.25349
7.06717
6.88845
6.71695
6.55228
6.39411
6.24209
6.09592
5.95532
5.82001
5.68972
5.56424
5.44331
5.32675
5.2143
5.10585
5.00113
4.90007
4.8024
4.70807
4.61685
4.52866
4.44336
4.36079
4.28092
4.2035
4.12862
4.05593
3.98565
3.91732
3.85125
3.78697
3.72479
3.66425
3.60565
3.54857
3.4933
3.43943
3.38725
3.33634
3.28705
3.23887
3.19227
3.14664
3.10254
3.05926
3.01749
2.97638
2.93674
2.89762
2.85992
2.82261
2.78666
2.75097
2.71658
2.68236
2.64938
2.6165
2.58486
2.55325
2.52295
2.49263
2.46373
2.43476
2.40737
2.37986
2.35408
2.32811
2.30398
2.27959
2.25709
2.23425
2.21328
2.19189
2.17229
2.1522
2.13379
2.11485
2.09744
2.07947
2.06291
2.04581
2.02993
2.01365
1.99835
1.98287
1.96806
1.95339
1.93905
1.92514
1.9113
1.89805
1.88478
1.87207
1.85939
1.84717
1.83503
1.82328
1.8116
1.80035
1.78906
1.77831
1.76739
1.75713
1.74662
1.7368
1.72679
1.71738
1.70795
1.69895
1.69013
1.68153
1.67333
1.66512
1.6575
1.64971
1.64252
1.63526
1.62833
1.6217
1.61499
1.6088
1.60252
1.5966
1.59089
1.58532
1.58016
1.5751
1.57034
1.56591
1.56178
1.55817
1.55503
1.55262
1.55064
1.54941
1.54893
1.54583
1.54517
1.54139
1.5421
1.54498
1.55042
1.55637
1.56502
1.57302
1.58394
1.59329
1.60585
1.61633
1.63037
1.64215
1.65787
1.67129
1.68895
1.70432
1.72408
1.74156
1.76335
1.78281
1.80617
1.82755
1.85117
1.87504
1.89696
1.92396
1.94345
1.97218
1.99163
2.01813
2.04178
2.06172
2.09145
2.1058
2.13507
2.15483
2.15617
2.15276
14.5689
14.028
13.5164
13.0321
12.5733
12.1384
11.7257
11.334
10.9617
10.6078
10.2711
9.9506
9.64525
9.35415
9.07653
8.81153
8.5585
8.31669
8.08553
7.86437
7.65272
7.45
7.25579
7.06957
6.89099
6.71958
6.55504
6.39694
6.24504
6.09895
5.95845
5.82321
5.69302
5.56761
5.44675
5.33025
5.21787
5.10948
5.00481
4.9038
4.80617
4.7119
4.6207
4.53257
4.44727
4.36477
4.28488
4.20753
4.13261
4.06001
3.98966
3.92144
3.85529
3.79111
3.72883
3.6684
3.6097
3.55272
3.49735
3.44356
3.3913
3.34045
3.29107
3.24298
3.19628
3.15074
3.10653
3.06339
3.02148
2.98058
2.94079
2.90197
2.86414
2.82723
2.79122
2.75606
2.72172
2.68815
2.6554
2.62331
2.59209
2.5614
2.53174
2.50243
2.47438
2.4465
2.42011
2.39372
2.36899
2.34413
2.32101
2.29768
2.27606
2.2542
2.23391
2.21339
2.19426
2.1749
2.15676
2.13838
2.12108
2.10355
2.08695
2.07019
2.05417
2.03816
2.02264
2.00737
1.9923
1.97777
1.96311
1.94928
1.93504
1.92178
1.90802
1.89522
1.88195
1.86953
1.85678
1.84471
1.83244
1.82079
1.80897
1.79782
1.78643
1.77584
1.76493
1.7549
1.74454
1.73505
1.72528
1.71626
1.70712
1.69847
1.69003
1.6817
1.67392
1.66598
1.65875
1.65138
1.64453
1.63776
1.63135
1.62492
1.61913
1.6129
1.60769
1.60184
1.59701
1.59169
1.58706
1.58235
1.57813
1.57413
1.57101
1.56802
1.56596
1.5642
1.56294
1.56158
1.56041
1.55909
1.55365
1.55267
1.55526
1.55976
1.56722
1.57441
1.58459
1.59332
1.60548
1.61538
1.62943
1.64068
1.65682
1.66975
1.68808
1.70296
1.72338
1.74039
1.76261
1.78173
1.80529
1.82646
1.85027
1.87401
1.89643
1.92331
1.94392
1.97214
1.99386
2.01906
2.04585
2.06653
2.09436
2.11874
2.13628
2.1723
2.17463
2.17102
14.569
14.0281
13.5166
13.0324
12.5737
12.1388
11.7262
11.3346
10.9624
10.6087
10.2721
9.95165
9.64642
9.35547
9.07796
8.81312
8.56021
8.31855
8.08752
7.8665
7.65499
7.4524
7.25832
7.07223
6.89377
6.72248
6.55805
6.40007
6.24827
6.10229
5.96188
5.82674
5.69663
5.57129
5.45051
5.33408
5.22178
5.11344
5.00884
4.90787
4.8103
4.71606
4.62491
4.53682
4.45155
4.36908
4.28921
4.2119
4.13699
4.06442
3.99407
3.92588
3.85972
3.79557
3.73328
3.67286
3.61416
3.55718
3.50181
3.44801
3.39574
3.34489
3.2955
3.24741
3.20068
3.15518
3.11091
3.06785
3.02588
2.9851
2.94527
2.90664
2.86883
2.83219
2.79629
2.76151
2.72742
2.69435
2.66202
2.63054
2.59992
2.56996
2.54105
2.51255
2.48533
2.45827
2.43271
2.4071
2.38311
2.35896
2.33644
2.31374
2.29255
2.27121
2.25121
2.2311
2.21215
2.19308
2.17503
2.15683
2.13955
2.12207
2.10543
2.08859
2.07246
2.05627
2.04052
2.02499
2.00955
1.99471
1.97952
1.96534
1.95042