/*--------------------------------*- C++ -*----------------------------------*\
  =========                 |
  \\      /  F ield         | OpenFOAM: The Open Source CFD Toolbox
   \\    /   O peration     | Website:  https://openfoam.org
    \\  /    A nd           | Version:  8
     \\/     M anipulation  |
\*---------------------------------------------------------------------------*/
FoamFile
{
    version     2.0;
    format      ascii;
    class       volScalarField;
    location    "100";
    object      k;
}
// * * * * * * * * * * * * * * * * * * * * * * * * * * * * * * * * * * * * * //

dimensions      [0 2 -2 0 0 0 0];

internalField   nonuniform List<scalar> 
65000
(
0.371234
0.363978
0.356995
0.350262
0.343777
0.337517
0.331483
0.325652
0.320026
0.314586
0.309332
0.304249
0.299334
0.294577
0.289973
0.285515
0.281195
0.277012
0.272953
0.269023
0.265205
0.261508
0.257911
0.254429
0.251038
0.247754
0.244553
0.241453
0.238427
0.235497
0.232635
0.229864
0.227153
0.224529
0.221959
0.219471
0.217033
0.214673
0.212358
0.210115
0.207916
0.205783
0.203692
0.201662
0.199672
0.197738
0.195843
0.193999
0.192193
0.190433
0.188711
0.187031
0.185386
0.183783
0.182211
0.180678
0.179175
0.177709
0.176272
0.174868
0.173493
0.172148
0.170833
0.169543
0.168284
0.167045
0.165839
0.164648
0.16349
0.162341
0.161223
0.16011
0.159023
0.157935
0.156867
0.155795
0.154736
0.15367
0.152612
0.151551
0.150494
0.149442
0.148395
0.147368
0.146348
0.145367
0.144402
0.143493
0.142608
0.141794
0.141012
0.140309
0.139643
0.139053
0.138503
0.138014
0.137565
0.137155
0.13678
0.136418
0.136086
0.135741
0.135418
0.135061
0.134719
0.134335
0.133953
0.133535
0.133106
0.132657
0.132185
0.131715
0.131213
0.130735
0.130223
0.129744
0.129243
0.128771
0.128297
0.127838
0.127397
0.126957
0.12655
0.126135
0.125754
0.125367
0.125005
0.124645
0.124299
0.123965
0.123635
0.123325
0.123016
0.122729
0.122445
0.122182
0.121924
0.121684
0.12145
0.121229
0.121018
0.120808
0.120617
0.120414
0.120234
0.120043
0.119862
0.119685
0.119499
0.11933
0.11914
0.118965
0.118759
0.118568
0.118341
0.118222
0.118113
0.118181
0.118455
0.118942
0.119636
0.120507
0.121581
0.122764
0.124103
0.125471
0.126938
0.128367
0.129848
0.131256
0.132678
0.134028
0.135363
0.136643
0.137882
0.139082
0.140227
0.141332
0.14238
0.14338
0.144335
0.145231
0.146103
0.146919
0.147707
0.148492
0.149176
0.149972
0.150556
0.151348
0.151869
0.152628
0.153077
0.153822
0.154196
0.154769
0.155341
0.155356
0.155303
0.155457
0.371234
0.363979
0.356994
0.350263
0.343776
0.337519
0.331482
0.325654
0.320025
0.314588
0.309331
0.304251
0.299334
0.29458
0.289973
0.285518
0.281195
0.277015
0.272954
0.269026
0.265206
0.26151
0.257914
0.254431
0.251041
0.247756
0.244556
0.241455
0.238431
0.2355
0.232639
0.229867
0.227157
0.224532
0.221963
0.219475
0.217038
0.214676
0.212363
0.210119
0.207921
0.205787
0.203698
0.201665
0.199678
0.197741
0.195849
0.194002
0.192199
0.190437
0.188717
0.187035
0.185393
0.183786
0.182217
0.180681
0.179181
0.177712
0.176278
0.174871
0.173499
0.172151
0.170838
0.169546
0.168289
0.167049
0.165845
0.164652
0.163495
0.162345
0.161228
0.160112
0.159025
0.157934
0.156864
0.155787
0.154725
0.153654
0.152593
0.151527
0.150469
0.149414
0.148371
0.147344
0.146337
0.145362
0.144418
0.143522
0.142668
0.141876
0.141134
0.14046
0.13984
0.139287
0.138787
0.138343
0.137948
0.137589
0.137272
0.136968
0.136699
0.136419
0.136164
0.135884
0.135615
0.135317
0.135013
0.134688
0.13434
0.133986
0.133597
0.133215
0.132795
0.13239
0.131954
0.131532
0.131095
0.130663
0.130236
0.129802
0.129391
0.128964
0.128569
0.128156
0.127772
0.127378
0.127002
0.126625
0.126257
0.125894
0.125538
0.12519
0.124851
0.12452
0.124203
0.123894
0.123599
0.123318
0.123046
0.122789
0.122541
0.122303
0.122079
0.121855
0.121651
0.121436
0.121244
0.121039
0.120848
0.120653
0.120456
0.120262
0.120047
0.119833
0.1196
0.119386
0.119225
0.119222
0.119406
0.119815
0.120453
0.121261
0.122288
0.123434
0.124751
0.126114
0.127586
0.12904
0.130543
0.13199
0.133438
0.134821
0.136164
0.137451
0.138671
0.139834
0.14093
0.141947
0.142928
0.1438
0.144681
0.145438
0.14624
0.146937
0.147671
0.148376
0.149042
0.14979
0.15041
0.151166
0.151786
0.152488
0.153119
0.153716
0.154409
0.154761
0.155576
0.155903
0.155888
0.155777
0.371233
0.36398
0.356994
0.350264
0.343776
0.33752
0.331482
0.325655
0.320025
0.31459
0.309332
0.304254
0.299335
0.294582
0.289974
0.285521
0.281198
0.277018
0.272957
0.269029
0.26521
0.261514
0.257918
0.254436
0.251046
0.247762
0.244561
0.241461
0.238437
0.235507
0.232646
0.229874
0.227164
0.224539
0.221971
0.219482
0.217047
0.214684
0.212372
0.210127
0.207931
0.205795
0.203707
0.201674
0.199688
0.19775
0.195859
0.194012
0.192209
0.190447
0.188727
0.187045
0.185403
0.183797
0.182227
0.180693
0.179191
0.177724
0.176287
0.174884
0.173509
0.172165
0.170849
0.16956
0.168301
0.167063
0.165858
0.164668
0.163511
0.162364
0.161248
0.160137
0.159054
0.157972
0.15691
0.155849
0.1548
0.153755
0.152716
0.151686
0.150662
0.149654
0.148657
0.147688
0.146738
0.145827
0.144948
0.144117
0.143331
0.142598
0.141921
0.141297
0.140733
0.140217
0.13976
0.13934
0.138973
0.13863
0.138327
0.138034
0.137769
0.1375
0.137245
0.136979
0.136711
0.136433
0.136136
0.135837
0.135503
0.135177
0.134807
0.134453
0.134053
0.13367
0.13325
0.132844
0.13241
0.131988
0.131549
0.131119
0.130681
0.130251
0.129821
0.129395
0.128975
0.128557
0.128149
0.127741
0.127347
0.126952
0.126572
0.126194
0.12583
0.125474
0.125129
0.124797
0.124474
0.124166
0.123867
0.123579
0.123307
0.123035
0.122786
0.122531
0.122299
0.122063
0.121837
0.121619
0.121399
0.12119
0.120979
0.120765
0.120556
0.120318
0.120092
0.119853
0.119669
0.119628
0.119765
0.120129
0.120748
0.121534
0.12256
0.12371
0.125051
0.126452
0.127979
0.129507
0.131091
0.132634
0.134166
0.135634
0.137038
0.138366
0.139608
0.140752
0.141832
0.142779
0.143718
0.144486
0.14532
0.145964
0.146732
0.147328
0.148056
0.148685
0.149379
0.15009
0.15076
0.151535
0.152201
0.152985
0.153632
0.15438
0.155017
0.155601
0.156337
0.156804
0.15674
0.156885
0.371233
0.36398
0.356994
0.350265
0.343777
0.337521
0.331483
0.325656
0.320027
0.314592
0.309334
0.304255
0.299338
0.294585
0.289978
0.285524
0.281202
0.277022
0.272962
0.269035
0.265215
0.261521
0.257924
0.254443
0.251053
0.24777
0.244569
0.24147
0.238446
0.235516
0.232656
0.229884
0.227175
0.22455
0.221983
0.219494
0.217059
0.214696
0.212384
0.21014
0.207943
0.205809
0.20372
0.201689
0.199701
0.197766
0.195872
0.194028
0.192222
0.190464
0.188741
0.187062
0.185417
0.183814
0.182243
0.180711
0.179208
0.177743
0.176305
0.174903
0.173528
0.172184
0.170869
0.16958
0.168322
0.167085
0.16588
0.164691
0.163535
0.162391
0.161278
0.160174
0.159095
0.158027
0.156974
0.155936
0.154904
0.153894
0.152883
0.151901
0.150917
0.14997
0.149025
0.148126
0.147237
0.1464
0.145585
0.144823
0.144095
0.143416
0.142783
0.142191
0.14165
0.141139
0.140679
0.140238
0.139842
0.139454
0.1391
0.138748
0.138416
0.138081
0.137754
0.13742
0.137084
0.136739
0.136383
0.13602
0.135641
0.135255
0.134852
0.134442
0.134017
0.133587
0.133143
0.132698
0.132238
0.131785
0.131315
0.13086
0.130388
0.129935
0.12947
0.129023
0.128573
0.128135
0.127704
0.12728
0.126871
0.126468
0.126082
0.125704
0.125344
0.12499
0.124656
0.124328
0.124017
0.123713
0.123421
0.12314
0.122866
0.122603
0.122347
0.122097
0.121862
0.121624
0.121406
0.121182
0.12098
0.120772
0.120584
0.12038
0.120188
0.119974
0.119758
0.119558
0.119418
0.119447
0.11968
0.120114
0.120776
0.121602
0.122651
0.123831
0.125201
0.126644
0.128227
0.129824
0.131495
0.133127
0.134762
0.136311
0.137811
0.139185
0.140496
0.141646
0.142762
0.143686
0.14463
0.14537
0.146184
0.146803
0.147537
0.14812
0.148806
0.149446
0.150094
0.150856
0.151479
0.15235
0.152975
0.153891
0.154529
0.155388
0.156105
0.156696
0.157662
0.157793
0.157692
0.158176
0.371234
0.36398
0.356995
0.350265
0.343778
0.337521
0.331485
0.325658
0.32003
0.314593
0.309338
0.304258
0.299342
0.294589
0.289982
0.285529
0.281207
0.277028
0.272968
0.269042
0.265223
0.261529
0.257933
0.254453
0.251062
0.24778
0.24458
0.241481
0.238458
0.235529
0.232669
0.229897
0.22719
0.224564
0.221999
0.219509
0.217075
0.214713
0.212402
0.210158
0.207961
0.205828
0.203738
0.201709
0.199719
0.197787
0.195891
0.19405
0.192242
0.190486
0.188761
0.187085
0.185439
0.183837
0.182265
0.180734
0.179231
0.177767
0.17633
0.174928
0.173554
0.17221
0.170896
0.169607
0.168349
0.167113
0.165907
0.16472
0.163563
0.162422
0.161307
0.160208
0.15913
0.158068
0.157021
0.155993
0.154973
0.153977
0.152987
0.152025
0.151071
0.150152
0.149245
0.148379
0.147533
0.146731
0.145958
0.145229
0.144536
0.143881
0.143267
0.142682
0.142139
0.141615
0.141127
0.140648
0.140199
0.139751
0.139324
0.138891
0.138471
0.138041
0.137618
0.137179
0.136747
0.136296
0.135852
0.135386
0.134931
0.134451
0.133985
0.133497
0.133022
0.13253
0.132046
0.131558
0.131068
0.130586
0.130094
0.129623
0.129135
0.128675
0.1282
0.127752
0.127297
0.126866
0.126433
0.126029
0.125619
0.125249
0.124866
0.124531
0.124183
0.123877
0.123567
0.123283
0.123011
0.122745
0.122505
0.122258
0.122039
0.121816
0.12161
0.121412
0.121217
0.121045
0.120861
0.120707
0.12054
0.120395
0.120238
0.120082
0.119892
0.119712
0.119501
0.119446
0.119483
0.119684
0.120033
0.120543
0.121218
0.122048
0.123062
0.124208
0.125529
0.126937
0.12849
0.130078
0.131764
0.133427
0.135124
0.136734
0.138322
0.139769
0.141164
0.142384
0.143559
0.144545
0.145518
0.146309
0.147125
0.14779
0.148498
0.149129
0.149755
0.150463
0.151022
0.151869
0.152405
0.153373
0.153933
0.154978
0.155548
0.156596
0.157253
0.157971
0.158992
0.159011
0.158892
0.158868
0.371234
0.36398
0.356996
0.350266
0.343779
0.337523
0.331486
0.32566
0.320032
0.314596
0.309341
0.304262
0.299346
0.294593
0.289988
0.285534
0.281214
0.277035
0.272977
0.26905
0.265233
0.261538
0.257944
0.254463
0.251076
0.247792
0.244596
0.241494
0.238475
0.235543
0.232688
0.229913
0.227211
0.224581
0.222021
0.219527
0.217098
0.214732
0.212425
0.210179
0.207985
0.20585
0.203763
0.201733
0.199745
0.197812
0.195917
0.194076
0.19227
0.190513
0.18879
0.187112
0.185468
0.183865
0.182295
0.180763
0.179262
0.177796
0.176361
0.174958
0.173585
0.172241
0.170927
0.169639
0.16838
0.167145
0.165938
0.164753
0.163592
0.162453
0.161334
0.160237
0.159155
0.158095
0.157045
0.156019
0.154999
0.154006
0.153019
0.152062
0.151117
0.150205
0.149312
0.148456
0.147627
0.146837
0.146082
0.145364
0.144685
0.144038
0.143429
0.142845
0.142294
0.141759
0.141248
0.140744
0.140254
0.139764
0.139281
0.13879
0.138303
0.137801
0.137304
0.136787
0.136278
0.135749
0.13523
0.134692
0.134167
0.133628
0.133103
0.132571
0.13205
0.131531
0.131018
0.130519
0.130016
0.129538
0.129047
0.128594
0.128118
0.127687
0.12723
0.126821
0.126388
0.126002
0.125597
0.125236
0.124864
0.12453
0.124195
0.123887
0.123593
0.12331
0.123054
0.122796
0.122571
0.12234
0.122138
0.121936
0.121748
0.121575
0.121401
0.12125
0.121095
0.120963
0.120826
0.120715
0.12059
0.120503
0.120381
0.120281
0.120132
0.119982
0.119776
0.119715
0.119734
0.119927
0.120266
0.120763
0.121403
0.122194
0.123148
0.124239
0.125492
0.126855
0.128362
0.129942
0.131627
0.133331
0.13508
0.136778
0.138454
0.140016
0.141508
0.142848
0.144103
0.145198
0.146221
0.147102
0.147938
0.148677
0.149368
0.150076
0.150648
0.151438
0.151929
0.152845
0.153347
0.154347
0.154935
0.155989
0.156637
0.157696
0.158426
0.159343
0.160096
0.16012
0.160602
0.160466
0.371234
0.363981
0.356996
0.350268
0.34378
0.337525
0.331488
0.325663
0.320034
0.314601
0.309344
0.304267
0.299351
0.2946
0.289994
0.285542
0.281222
0.277044
0.272987
0.26906
0.265245
0.26155
0.257958
0.254477
0.251091
0.247808
0.244613
0.241512
0.238494
0.235563
0.232708
0.229934
0.227232
0.224604
0.222044
0.219552
0.217123
0.214758
0.212452
0.210206
0.208014
0.205879
0.203793
0.201762
0.199776
0.197843
0.19595
0.194107
0.192303
0.190545
0.188824
0.187146
0.185503
0.183899
0.182331
0.180797
0.179298
0.177831
0.176397
0.174993
0.173621
0.172277
0.170963
0.169675
0.168417
0.167182
0.165974
0.164789
0.163627
0.162488
0.161367
0.16027
0.159184
0.158124
0.157069
0.156042
0.155018
0.154025
0.153034
0.152078
0.151128
0.150218
0.149319
0.148465
0.147628
0.146838
0.146071
0.145349
0.144653
0.143996
0.143365
0.142763
0.142184
0.141622
0.141075
0.140537
0.140005
0.139475
0.138945
0.13841
0.137872
0.137326
0.136778
0.13622
0.135663
0.1351
0.134537
0.133976
0.133416
0.132867
0.132317
0.131787
0.131256
0.130752
0.130242
0.12977
0.129284
0.128846
0.128386
0.127982
0.127548
0.127174
0.126769
0.12642
0.126045
0.12572
0.125376
0.125074
0.124763
0.124486
0.124208
0.123954
0.12371
0.123478
0.123267
0.123054
0.122874
0.12268
0.122525
0.122352
0.122215
0.122063
0.121938
0.121806
0.12169
0.12158
0.121465
0.121382
0.121266
0.121199
0.121091
0.12102
0.120894
0.120777
0.120563
0.120347
0.120268
0.120357
0.120605
0.121023
0.121573
0.122286
0.123145
0.12417
0.125349
0.126678
0.12814
0.129722
0.131398
0.133141
0.134916
0.136688
0.138416
0.140073
0.141626
0.143064
0.144374
0.145551
0.146621
0.147561
0.148432
0.149213
0.149932
0.150675
0.151269
0.152095
0.152608
0.153571
0.15409
0.155158
0.155775
0.156885
0.157603
0.158723
0.15947
0.160505
0.161458
0.161571
0.161844
0.161691
0.371233
0.363982
0.356996
0.35027
0.343781
0.337528
0.33149
0.325667
0.320037
0.314606
0.309348
0.304274
0.299356
0.294608
0.290001
0.285552
0.281231
0.277055
0.272997
0.269073
0.265258
0.261565
0.257973
0.254495
0.251108
0.247828
0.244631
0.241535
0.238514
0.235588
0.23273
0.229961
0.227256
0.224633
0.222069
0.219583
0.217151
0.214791
0.212481
0.21024
0.208045
0.205914
0.203826
0.201799
0.199811
0.19788
0.195986
0.194146
0.192341
0.190584
0.188863
0.187186
0.185542
0.18394
0.18237
0.180839
0.179338
0.177873
0.176438
0.175035
0.173663
0.172319
0.171005
0.169717
0.168459
0.167224
0.166017
0.164832
0.16367
0.162532
0.161409
0.160315
0.159225
0.158168
0.157107
0.156084
0.155049
0.154057
0.153049
0.15209
0.151115
0.150193
0.149259
0.14838
0.147496
0.146667
0.145838
0.145064
0.144294
0.143572
0.142856
0.14218
0.14151
0.140872
0.140235
0.139623
0.139007
0.138411
0.137806
0.137218
0.136618
0.136035
0.135441
0.134864
0.134277
0.133712
0.133137
0.132591
0.132035
0.131513
0.130983
0.130491
0.129992
0.129533
0.129067
0.128646
0.128213
0.127829
0.127429
0.127081
0.126711
0.126392
0.126052
0.125755
0.125444
0.125164
0.124881
0.124615
0.124359
0.124109
0.12388
0.123646
0.123443
0.123226
0.123048
0.12285
0.122695
0.122517
0.122384
0.122227
0.12211
0.121975
0.121868
0.121754
0.121649
0.121558
0.121446
0.121376
0.12126
0.121196
0.121089
0.121026
0.120902
0.1208
0.120608
0.120378
0.120162
0.120217
0.120423
0.120832
0.121362
0.122089
0.122944
0.124
0.125183
0.126549
0.12802
0.129639
0.131324
0.1331
0.134882
0.136682
0.138417
0.140102
0.141666
0.143129
0.144461
0.145654
0.146759
0.147707
0.148624
0.149416
0.150184
0.150949
0.1516
0.152456
0.153042
0.154035
0.154653
0.155735
0.156492
0.157571
0.1585
0.159485
0.160591
0.161275
0.162671
0.162816
0.162773
0.162708
0.371233
0.363984
0.356997
0.350272
0.343782
0.337532
0.331492
0.325672
0.320041
0.314612
0.309353
0.304282
0.299363
0.294617
0.29001
0.285563
0.281242
0.277069
0.27301
0.269089
0.265272
0.261584
0.25799
0.254516
0.251127
0.247851
0.244653
0.241561
0.238538
0.235616
0.232756
0.229992
0.227284
0.224666
0.2221
0.219618
0.217183
0.214828
0.212516
0.210279
0.208082
0.205954
0.203865
0.20184
0.199852
0.197922
0.196029
0.194189
0.192384
0.190629
0.188907
0.187232
0.185587
0.183987
0.182416
0.180887
0.179384
0.177921
0.176484
0.175084
0.17371
0.172367
0.171054
0.169766
0.168509
0.167273
0.166068
0.164884
0.163723
0.162589
0.161466
0.160379
0.159288
0.158242
0.157178
0.156167
0.155127
0.154146
0.153129
0.152176
0.151182
0.150256
0.14929
0.148393
0.147461
0.146596
0.145701
0.144872
0.144016
0.143221
0.142402
0.14164
0.140853
0.140116
0.139353
0.13864
0.137896
0.137202
0.136474
0.135798
0.135089
0.134432
0.133746
0.133112
0.132454
0.131848
0.131223
0.13065
0.130063
0.129529
0.128982
0.12849
0.127987
0.127539
0.127079
0.126675
0.126257
0.125895
0.125516
0.125187
0.124844
0.124538
0.124225
0.123932
0.123645
0.123358
0.123091
0.12281
0.122558
0.122285
0.122048
0.121786
0.121565
0.121319
0.121116
0.120891
0.120706
0.120507
0.120345
0.120173
0.120032
0.119889
0.119764
0.11965
0.119531
0.119442
0.119322
0.119245
0.119129
0.119059
0.118935
0.118856
0.118665
0.118573
0.118378
0.118376
0.11847
0.118768
0.11917
0.119763
0.120476
0.121386
0.122417
0.123639
0.12496
0.126449
0.128006
0.129698
0.131414
0.133216
0.134986
0.13678
0.138481
0.140147
0.141675
0.143121
0.144426
0.145616
0.146707
0.147676
0.148585
0.149429
0.150193
0.151033
0.151703
0.152627
0.153286
0.154302
0.155072
0.156111
0.15709
0.158059
0.159263
0.160068
0.161466
0.161996
0.16333
0.164031
0.164022
0.163844
0.371233
0.363985
0.356998
0.350274
0.343785
0.337535
0.331496
0.325676
0.320046
0.314617
0.309361
0.304288
0.299372
0.294626
0.290022
0.285574
0.281257
0.277081
0.273028
0.269104
0.265293
0.261601
0.258013
0.254535
0.251154
0.247874
0.244682
0.241586
0.238569
0.235644
0.23279
0.230023
0.22732
0.2247
0.222138
0.219655
0.217224
0.214867
0.212559
0.210319
0.208127
0.205996
0.203912
0.201884
0.1999
0.197968
0.196078
0.194236
0.192435
0.190678
0.188958
0.187282
0.18564
0.184039
0.182469
0.180939
0.179438
0.177975
0.176539
0.175138
0.173765
0.172423
0.171109
0.169822
0.168564
0.167331
0.166125
0.164945
0.163785
0.162656
0.161537
0.160458
0.159377
0.158342
0.157294
0.156299
0.155281
0.154321
0.153329
0.152398
0.15143
0.150524
0.14958
0.148693
0.147771
0.146903
0.146002
0.145148
0.144265
0.143424
0.142556
0.141726
0.140869
0.14005
0.1392
0.138391
0.137547
0.136751
0.135917
0.135136
0.134321
0.133561
0.132776
0.132041
0.131294
0.130592
0.129891
0.129229
0.128578
0.127964
0.127366
0.126804
0.126262
0.125753
0.125267
0.12481
0.124376
0.123966
0.123575
0.123202
0.122847
0.122497
0.122169
0.121831
0.121523
0.121192
0.1209
0.120573
0.120296
0.119979
0.119716
0.119417
0.119169
0.118901
0.118666
0.118438
0.118219
0.118033
0.11784
0.117685
0.117526
0.117394
0.117264
0.117147
0.117042
0.116928
0.116829
0.11672
0.116604
0.116488
0.116311
0.116142
0.115905
0.115854
0.115888
0.116129
0.116514
0.117073
0.117782
0.118647
0.11967
0.120836
0.122132
0.123549
0.125054
0.126665
0.128316
0.130052
0.131782
0.133565
0.135293
0.137032
0.138668
0.14027
0.141735
0.143133
0.144387
0.145563
0.146611
0.147608
0.148481
0.14939
0.150138
0.151051
0.151751
0.15271
0.153476
0.154464
0.155404
0.156374
0.157528
0.158442
0.159762
0.160556
0.161988
0.162555
0.163851
0.164538
0.164613
0.164507
0.371234
0.363984
0.357001
0.350274
0.343789
0.337536
0.331501
0.325679
0.320053
0.314622
0.30937
0.304295
0.299384
0.294635
0.290036
0.285585
0.281273
0.277096
0.273048
0.269122
0.265316
0.261622
0.258039
0.25456
0.251182
0.247901
0.244713
0.241617
0.238603
0.235678
0.232827
0.23006
0.22736
0.22474
0.22218
0.219696
0.217268
0.214911
0.212606
0.210366
0.208175
0.206045
0.203962
0.201935
0.199952
0.198021
0.196132
0.194291
0.19249
0.190734
0.189016
0.187339
0.185698
0.184097
0.182529
0.180999
0.1795
0.178035
0.176602
0.1752
0.173829
0.172485
0.171173
0.169886
0.168628
0.167397
0.166189
0.165012
0.163852
0.162728
0.161613
0.160538
0.159466
0.158437
0.157405
0.156419
0.155423
0.154473
0.153509
0.15259
0.151653
0.150758
0.149843
0.148962
0.148065
0.147192
0.146305
0.145433
0.144552
0.143678
0.142795
0.141917
0.141028
0.140148
0.139252
0.138373
0.137473
0.1366
0.135704
0.134841
0.133958
0.133111
0.132253
0.13143
0.130608
0.129816
0.129037
0.128287
0.127557
0.126857
0.126184
0.125539
0.124926
0.124338
0.123787
0.123255
0.122759
0.122276
0.121824
0.121383
0.120962
0.120548
0.120152
0.119754
0.119378
0.118991
0.118636
0.118261
0.117928
0.117574
0.117266
0.116945
0.116663
0.116385
0.11613
0.115901
0.115674
0.115488
0.115296
0.115139
0.114984
0.114844
0.114719
0.11459
0.114479
0.114359
0.114239
0.114119
0.113958
0.113797
0.113575
0.113376
0.113309
0.113397
0.113679
0.114149
0.114818
0.11564
0.116671
0.117822
0.119157
0.120569
0.122113
0.123707
0.125375
0.127079
0.128805
0.130558
0.132291
0.134032
0.135717
0.13738
0.138953
0.140475
0.141876
0.143212
0.144414
0.14556
0.146574
0.147572
0.148439
0.149363
0.150145
0.151063
0.151837
0.152783
0.153638
0.154615
0.155613
0.156611
0.157757
0.158739
0.159988
0.160906
0.162143
0.16296
0.164106
0.164776
0.165189
0.165538
0.371236
0.363984
0.357003
0.350275
0.343793
0.337539
0.331507
0.325683
0.320061
0.314629
0.309379
0.304304
0.299396
0.294646
0.290051
0.2856
0.281291
0.277114
0.273068
0.269143
0.265339
0.261647
0.258065
0.254588
0.251211
0.247934
0.244745
0.241653
0.238639
0.235717
0.232866
0.230102
0.227402
0.224785
0.222225
0.219744
0.217316
0.214962
0.212655
0.21042
0.208227
0.206102
0.204016
0.201994
0.200007
0.198083
0.196189
0.194355
0.192548
0.190801
0.189075
0.187408
0.185759
0.184167
0.182592
0.181069
0.179564
0.178107
0.176668
0.175272
0.173896
0.172558
0.171241
0.16996
0.168696
0.167471
0.166259
0.165086
0.163923
0.162802
0.161686
0.160614
0.159543
0.158517
0.157489
0.156506
0.155517
0.154573
0.153618
0.152707
0.151781
0.150894
0.149994
0.149123
0.148243
0.147379
0.146514
0.145652
0.144797
0.143934
0.143082
0.142219
0.141365
0.140504
0.139645
0.138788
0.137926
0.137073
0.136212
0.135365
0.134513
0.133673
0.132836
0.132008
0.131192
0.130385
0.129596
0.12882
0.128063
0.127328
0.126615
0.125927
0.125265
0.124626
0.124023
0.123432
0.122885
0.122339
0.121836
0.121329
0.120857
0.12038
0.119927
0.11947
0.119034
0.118593
0.118176
0.117757
0.117365
0.116976
0.116618
0.116269
0.11595
0.11565
0.115367
0.115121
0.11487
0.114668
0.114449
0.114275
0.114083
0.113925
0.113751
0.113599
0.113439
0.113277
0.113129
0.112947
0.11277
0.112544
0.112305
0.112097
0.112086
0.112238
0.112642
0.113215
0.114038
0.114997
0.116194
0.117488
0.118983
0.120528
0.122208
0.123905
0.125672
0.127437
0.129215
0.130984
0.132721
0.13444
0.136086
0.137703
0.139208
0.14068
0.142006
0.143304
0.144443
0.145567
0.146549
0.147538
0.148417
0.149329
0.150169
0.151059
0.151924
0.152833
0.153765
0.154733
0.155736
0.156789
0.157832
0.158961
0.159976
0.161158
0.162021
0.163234
0.163839
0.165066
0.16519
0.165471
0.371236
0.363985
0.357005
0.350277
0.343796
0.337542
0.331512
0.325689
0.320069
0.314636
0.30939
0.304314
0.299409
0.29466
0.290067
0.285616
0.28131
0.277134
0.273091
0.269167
0.265365
0.261675
0.258094
0.25462
0.251244
0.24797
0.244781
0.241693
0.238678
0.235761
0.232909
0.230149
0.227448
0.224835
0.222275
0.219798
0.217369
0.215018
0.212712
0.210479
0.208286
0.206164
0.204077
0.202059
0.20007
0.19815
0.196253
0.194426
0.192614
0.190873
0.189142
0.187482
0.185828
0.184243
0.182662
0.181147
0.179636
0.178185
0.176741
0.175351
0.17397
0.172638
0.171315
0.170039
0.168772
0.167551
0.166335
0.165166
0.164
0.162882
0.161764
0.160694
0.159623
0.158598
0.157572
0.156592
0.155606
0.154666
0.153716
0.152813
0.151896
0.151021
0.150136
0.149283
0.148427
0.14759
0.14676
0.145936
0.145128
0.144317
0.143527
0.14273
0.141956
0.141175
0.140411
0.139647
0.13889
0.138139
0.137388
0.136644
0.135901
0.135159
0.134422
0.133682
0.132953
0.132219
0.131498
0.13078
0.130073
0.129379
0.128696
0.128033
0.127386
0.126755
0.126153
0.125554
0.124997
0.124428
0.123906
0.123365
0.122866
0.122344
0.12186
0.121348
0.120875
0.120371
0.119907
0.119424
0.118969
0.118525
0.118092
0.117691
0.117295
0.116939
0.116584
0.116275
0.115956
0.115688
0.115399
0.115156
0.114894
0.114673
0.114431
0.114217
0.113991
0.113767
0.11357
0.113344
0.113139
0.112878
0.112597
0.112329
0.112295
0.112412
0.112789
0.113332
0.114131
0.115071
0.116255
0.117546
0.119044
0.1206
0.122297
0.124007
0.125793
0.127566
0.129357
0.131124
0.132856
0.134563
0.13618
0.137781
0.139241
0.140695
0.141979
0.14326
0.144382
0.145489
0.146493
0.147459
0.148402
0.149281
0.150217
0.151066
0.152028
0.152908
0.153901
0.154859
0.155868
0.156931
0.157917
0.159078
0.159981
0.16118
0.161991
0.163065
0.16386
0.164722
0.165048
0.165424
0.371236
0.363986
0.357007
0.350281
0.3438
0.337547
0.331518
0.325696
0.320076
0.314646
0.3094
0.304327
0.299422
0.294675
0.290084
0.285636
0.281331
0.277157
0.273115
0.269194
0.265393
0.261706
0.258127
0.254655
0.251281
0.248008
0.244823
0.241735
0.238725
0.235807
0.23296
0.230199
0.227503
0.224888
0.222334
0.219854
0.217432
0.215077
0.212778
0.210541
0.208356
0.206229
0.20415
0.202127
0.200145
0.19822
0.196331
0.194498
0.192694
0.190947
0.189223
0.187558
0.18591
0.184321
0.182745
0.181226
0.17972
0.178266
0.176826
0.175434
0.174055
0.172721
0.171402
0.170124
0.16886
0.167635
0.166423
0.16525
0.164089
0.162964
0.161851
0.160773
0.159705
0.158671
0.157645
0.156652
0.155665
0.154709
0.153756
0.152832
0.15191
0.151013
0.150118
0.149244
0.148375
0.147523
0.14668
0.14585
0.145035
0.14423
0.143443
0.142665
0.141907
0.141158
0.140427
0.139704
0.138995
0.138294
0.137601
0.136915
0.136231
0.135553
0.134872
0.134196
0.133515
0.132841
0.132162
0.131491
0.130821
0.130162
0.12951
0.128871
0.128245
0.127634
0.127037
0.12646
0.12589
0.125344
0.124801
0.12428
0.123758
0.123256
0.122751
0.122263
0.121771
0.121299
0.120818
0.120369
0.119903
0.119481
0.119042
0.118649
0.118248
0.117884
0.117524
0.11719
0.116869
0.116561
0.116269
0.115986
0.115709
0.115454
0.115184
0.114948
0.114683
0.114457
0.114207
0.113983
0.113725
0.113472
0.113156
0.112812
0.112517
0.112489
0.112711
0.113168
0.113902
0.114798
0.115952
0.117228
0.118723
0.120282
0.121994
0.123713
0.125517
0.127298
0.129102
0.130875
0.132611
0.134325
0.135941
0.13755
0.139012
0.140476
0.141774
0.143066
0.144221
0.145341
0.146394
0.147375
0.148371
0.149273
0.150245
0.151136
0.1521
0.153035
0.153998
0.155002
0.155969
0.157038
0.158002
0.159093
0.160044
0.16105
0.162027
0.162793
0.163799
0.164335
0.165215
0.16542
0.371236
0.363988
0.357009
0.350284
0.343803
0.337553
0.331523
0.325704
0.320085
0.314657
0.309411
0.304341
0.299437
0.294693
0.290102
0.285657
0.281353
0.277183
0.273142
0.269224
0.265425
0.26174
0.258164
0.254694
0.251323
0.248051
0.24487
0.241781
0.238777
0.235857
0.233016
0.230253
0.227564
0.224947
0.222399
0.219917
0.217501
0.215144
0.21285
0.210611
0.208432
0.206302
0.204229
0.202202
0.200228
0.198298
0.196416
0.194578
0.192781
0.191029
0.189313
0.187642
0.186001
0.184407
0.182838
0.181314
0.179813
0.178356
0.17692
0.175525
0.174151
0.172814
0.171498
0.170217
0.168957
0.167729
0.166521
0.165342
0.164184
0.163052
0.161939
0.16085
0.159777
0.158726
0.157687
0.156668
0.155657
0.154661
0.153672
0.152693
0.15172
0.150755
0.149795
0.148845
0.147899
0.146968
0.146043
0.145138
0.144243
0.143373
0.142517
0.141688
0.140878
0.140093
0.13933
0.13859
0.13787
0.137169
0.136481
0.135811
0.135144
0.134494
0.133837
0.133195
0.132544
0.131903
0.131257
0.130616
0.12998
0.129343
0.128723
0.128101
0.127498
0.126902
0.126317
0.125755
0.125188
0.124658
0.124112
0.123607
0.123089
0.122604
0.122114
0.121651
0.121185
0.120749
0.120302
0.119895
0.119468
0.119087
0.118687
0.118325
0.117957
0.117612
0.117277
0.116953
0.11664
0.116342
0.116043
0.115771
0.115482
0.115223
0.11495
0.114691
0.114439
0.114175
0.113938
0.113672
0.113419
0.11313
0.112812
0.112484
0.112213
0.112221
0.112467
0.112938
0.11367
0.114564
0.115707
0.116967
0.118442
0.119977
0.121671
0.123369
0.125161
0.126925
0.12872
0.130485
0.132219
0.133934
0.13556
0.137181
0.13867
0.140155
0.141494
0.142819
0.144021
0.14519
0.146276
0.147327
0.148322
0.149314
0.150237
0.151233
0.15211
0.153146
0.154014
0.155089
0.155984
0.157075
0.157998
0.159066
0.160007
0.160965
0.161943
0.162668
0.163644
0.164251
0.164846
0.165774
0.371236
0.36399
0.357011
0.350289
0.343807
0.337559
0.33153
0.325713
0.320094
0.314669
0.309424
0.304356
0.299454
0.294712
0.290123
0.285681
0.281379
0.277211
0.273172
0.269257
0.265461
0.261778
0.258205
0.254736
0.25137
0.248098
0.244922
0.241833
0.238834
0.235914
0.233078
0.230315
0.227631
0.225013
0.22247
0.219987
0.217575
0.215218
0.212928
0.210689
0.208512
0.206384
0.204312
0.202287
0.200315
0.198386
0.196506
0.194668
0.192874
0.191122
0.189408
0.187737
0.186099
0.184504
0.182937
0.181413
0.179913
0.178458
0.177021
0.175629
0.174253
0.172919
0.171602
0.170323
0.169063
0.167835
0.166627
0.165446
0.164287
0.16315
0.162034
0.160935
0.159855
0.158787
0.157733
0.156686
0.15565
0.154617
0.153588
0.152562
0.151536
0.150514
0.14949
0.148477
0.147462
0.146467
0.145473
0.14451
0.143554
0.142635
0.141732
0.140867
0.140027
0.13922
0.138446
0.137697
0.136984
0.136284
0.13562
0.13496
0.134329
0.133696
0.133084
0.132467
0.131862
0.131253
0.130649
0.130046
0.129443
0.128846
0.128247
0.127662
0.12707
0.126505
0.125922
0.12538
0.124809
0.124293
0.123739
0.123246
0.122717
0.122245
0.121745
0.121298
0.120826
0.120406
0.119961
0.119567
0.119148
0.118778
0.118385
0.118036
0.117669
0.117342
0.116997
0.116689
0.116367
0.116076
0.115775
0.115492
0.115216
0.114934
0.114677
0.114402
0.114151
0.113893
0.113641
0.113406
0.113143
0.112893
0.112597
0.112301
0.112046
0.112023
0.112207
0.112617
0.11328
0.114106
0.115182
0.116383
0.117814
0.119313
0.120987
0.122675
0.124474
0.126253
0.128077
0.129872
0.131646
0.133397
0.135069
0.136726
0.138265
0.139789
0.141182
0.142555
0.143806
0.145036
0.146156
0.147277
0.148284
0.149343
0.150262
0.151303
0.152175
0.153216
0.154094
0.155133
0.156055
0.157084
0.158042
0.159048
0.160011
0.16094
0.16191
0.16266
0.163602
0.164263
0.164883
0.165673
0.371236
0.363993
0.357013
0.350293
0.343812
0.337567
0.331537
0.325723
0.320104
0.314682
0.309438
0.304373
0.299472
0.294734
0.290147
0.285707
0.281408
0.277242
0.273207
0.269293
0.265501
0.261819
0.258251
0.254783
0.251421
0.24815
0.24498
0.24189
0.238897
0.235976
0.233146
0.230382
0.227703
0.225085
0.222546
0.220065
0.217655
0.215301
0.213012
0.210776
0.208599
0.206475
0.204403
0.202382
0.200409
0.198484
0.196603
0.194769
0.192974
0.191225
0.189511
0.187843
0.186204
0.184612
0.183043
0.181524
0.180021
0.178571
0.17713
0.175743
0.174364
0.173035
0.171715
0.17044
0.169177
0.167951
0.166743
0.165562
0.164405
0.163266
0.162152
0.161049
0.15997
0.158897
0.157843
0.156791
0.155752
0.154712
0.153678
0.152645
0.151612
0.150586
0.149555
0.148543
0.147526
0.146539
0.145551
0.144602
0.143664
0.142768
0.141894
0.14106
0.14026
0.139493