/*--------------------------------*- C++ -*----------------------------------*\
  =========                 |
  \\      /  F ield         | OpenFOAM: The Open Source CFD Toolbox
   \\    /   O peration     | Website:  https://openfoam.org
    \\  /    A nd           | Version:  8
     \\/     M anipulation  |
\*---------------------------------------------------------------------------*/
FoamFile
{
    version     2.0;
    format      ascii;
    class       volScalarField::Internal;
    location    "100";
    object      kEpsilon:G;
}
// * * * * * * * * * * * * * * * * * * * * * * * * * * * * * * * * * * * * * //

dimensions      [0 2 -3 0 0 0 0];

value           nonuniform List<scalar> 
65000
(
6.44726e-05
0.000402578
0.00113156
0.00222495
0.00364319
0.00538574
0.0074583
0.00984762
0.0125317
0.0154928
0.0187181
0.0221894
0.025887
0.0297928
0.0338914
0.038164
0.0425879
0.0471449
0.0518173
0.0565949
0.0614573
0.0663929
0.0713771
0.0764051
0.081455
0.0865301
0.0916066
0.0966912
0.101756
0.106813
0.111832
0.116834
0.121787
0.126718
0.131591
0.136441
0.141228
0.145989
0.150683
0.155352
0.159955
0.164534
0.169051
0.173545
0.177985
0.182402
0.186774
0.191125
0.19544
0.199736
0.204004
0.208258
0.212491
0.216718
0.220928
0.225142
0.229343
0.233558
0.237764
0.241991
0.24622
0.250469
0.254737
0.259018
0.263342
0.267662
0.272056
0.276422
0.280891
0.285304
0.289845
0.2943
0.298898
0.30338
0.308012
0.312505
0.317145
0.321639
0.326271
0.330777
0.33541
0.339972
0.344648
0.349347
0.354151
0.359101
0.364151
0.369487
0.374921
0.380772
0.38672
0.39319
0.399755
0.406897
0.414127
0.421933
0.429818
0.438211
0.446678
0.455531
0.464461
0.473615
0.482862
0.492166
0.501585
0.510929
0.520396
0.529742
0.539176
0.548559
0.557939
0.567449
0.576822
0.586561
0.596047
0.606084
0.615853
0.626217
0.636442
0.647145
0.657939
0.669013
0.680399
0.691905
0.703849
0.715858
0.728324
0.74092
0.753924
0.767211
0.780844
0.79493
0.809355
0.824329
0.83971
0.855654
0.872056
0.88901
0.906422
0.924319
0.94273
0.961405
0.980805
1.00014
1.0204
1.04049
1.06136
1.08238
1.10373
1.12561
1.14741
1.1698
1.19179
1.21457
1.23732
1.26327
1.29073
1.32287
1.36058
1.40439
1.45309
1.51047
1.5715
1.63394
1.69946
1.76398
1.83161
1.89616
1.96287
2.02536
2.08892
2.14802
2.20686
2.26104
2.31349
2.36025
2.4036
2.44005
2.47078
2.49476
2.51015
2.51958
2.51886
2.51092
2.49325
2.4666
2.42743
2.38356
2.31795
2.25446
2.16652
2.07434
1.9711
1.85449
1.73561
1.62139
1.49288
1.35612
1.21282
1.07878
0.000162815
0.000501072
0.00123045
0.00232473
0.00374464
0.00548965
0.00756491
0.00995736
0.0126446
0.0156095
0.0188382
0.0223137
0.0260145
0.0299246
0.0340261
0.0383028
0.0427291
0.0472896
0.0519638
0.0567443
0.061608
0.0665458
0.0715306
0.0765599
0.0816099
0.0866854
0.0917615
0.0968457
0.10191
0.106966
0.111983
0.116984
0.121935
0.126864
0.131735
0.136583
0.141366
0.146125
0.150817
0.155483
0.160084
0.164658
0.169175
0.173663
0.178104
0.182514
0.186888
0.19123
0.195549
0.199835
0.204109
0.208351
0.212591
0.216805
0.221024
0.225224
0.229434
0.233634
0.237851
0.242063
0.246302
0.250537
0.254815
0.259082
0.263416
0.267724
0.272127
0.276481
0.280958
0.285358
0.289906
0.294343
0.298946
0.303404
0.308037
0.312499
0.317139
0.321595
0.32623
0.330693
0.335341
0.339859
0.344575
0.349234
0.354115
0.359039
0.364212
0.369545
0.37515
0.381036
0.387202
0.393757
0.40058
0.407872
0.415398
0.423427
0.431649
0.440346
0.449201
0.458445
0.467829
0.477474
0.487247
0.497157
0.507164
0.517242
0.527342
0.53754
0.547636
0.557946
0.568013
0.578448
0.588538
0.599119
0.609342
0.620091
0.630577
0.641524
0.652389
0.663583
0.674898
0.686408
0.69819
0.710099
0.722322
0.734709
0.747356
0.760288
0.773403
0.786942
0.800651
0.814866
0.829342
0.844321
0.859714
0.875566
0.891935
0.908755
0.926086
0.943874
0.962132
0.980804
1.00001
1.01947
1.03961
1.05983
1.08083
1.10185
1.12356
1.14538
1.16764
1.19001
1.21248
1.23507
1.25776
1.28148
1.30863
1.33902
1.37547
1.41774
1.46572
1.52123
1.58138
1.64367
1.70909
1.77492
1.8428
1.90938
1.97625
2.04083
2.10402
2.16472
2.22237
2.27712
2.32744
2.37305
2.41374
2.44679
2.47502
2.49389
2.50717
2.51178
2.5089
2.49853
2.47859
2.45218
2.41185
2.36899
2.30501
2.24081
2.15857
2.06219
1.96776
1.84871
1.72984
1.60813
1.48484
1.35421
1.22075
1.08182
0.00036026
0.000698656
0.00142862
0.00252449
0.00394761
0.0056973
0.007778
0.0101765
0.0128702
0.0158422
0.0190781
0.0225612
0.0262693
0.0301869
0.0342953
0.0385789
0.0430112
0.0475777
0.0522568
0.0570421
0.0619094
0.0668504
0.0718377
0.0768686
0.0819199
0.0869955
0.0920715
0.0971543
0.102217
0.10727
0.112286
0.117283
0.122231
0.127155
0.132023
0.136864
0.141645
0.146396
0.151086
0.155743
0.160343
0.164907
0.169423
0.173901
0.17834
0.182741
0.187112
0.191447
0.195761
0.200042
0.204308
0.20855
0.21278
0.216996
0.221201
0.225407
0.229601
0.233811
0.238007
0.242233
0.24645
0.250701
0.254955
0.259241
0.263551
0.267878
0.272259
0.276631
0.281093
0.285511
0.29005
0.29451
0.299115
0.303608
0.308259
0.312774
0.317454
0.321993
0.326701
0.331282
0.336046
0.340718
0.345601
0.350444
0.355542
0.360666
0.366097
0.371625
0.377513
0.383565
0.390017
0.39669
0.403778
0.411131
0.418878
0.426916
0.435296
0.44397
0.452917
0.462134
0.471546
0.481196
0.490956
0.500942
0.510921
0.521172
0.531252
0.54172
0.551827
0.562472
0.572594
0.583383
0.593556
0.604465
0.614746
0.625785
0.63623
0.647438
0.658109
0.669546
0.680514
0.692247
0.703584
0.715676
0.727441
0.739956
0.752203
0.765209
0.778003
0.791577
0.805013
0.819234
0.833435
0.848366
0.863445
0.879125
0.895141
0.911596
0.928549
0.945788
0.963646
0.98168
1.00046
1.01935
1.03902
1.05891
1.07931
1.1003
1.12143
1.14338
1.16528
1.18774
1.21029
1.23274
1.25555
1.27888
1.30552
1.33514
1.37092
1.41211
1.46
1.51425
1.57608
1.63806
1.70449
1.77044
1.84016
1.90864
1.97796
2.04581
2.11112
2.1752
2.23351
2.29046
2.33946
2.38557
2.42335
2.45543
2.4802
2.4971
2.50753
2.5096
2.50546
2.49237
2.47346
2.4443
2.4075
2.36226
2.30302
2.23803
2.15963
2.06447
1.97239
1.85542
1.73783
1.62369
1.4974
1.36706
1.23084
1.08757
0.000658166
0.000996731
0.00172753
0.00282573
0.00425367
0.00601037
0.00809931
0.0105068
0.0132102
0.0161926
0.0194395
0.0229337
0.0266531
0.0305815
0.0347007
0.0389942
0.0434363
0.0480112
0.0526984
0.0574903
0.0623637
0.0673092
0.0723004
0.0773336
0.0823866
0.0874624
0.0925381
0.0976192
0.10268
0.107729
0.112741
0.117733
0.122676
0.127593
0.132456
0.137289
0.142063
0.146806
0.151488
0.156137
0.160728
0.165285
0.16979
0.174263
0.178689
0.183087
0.187444
0.191778
0.196076
0.200358
0.204608
0.20885
0.213065
0.217282
0.221473
0.225679
0.229861
0.234069
0.238258
0.24248
0.246691
0.250937
0.255187
0.259468
0.263775
0.268098
0.272475
0.27685
0.281304
0.285737
0.290269
0.294761
0.299362
0.303915
0.308574
0.313189
0.317898
0.322584
0.327355
0.332137
0.337005
0.34193
0.346958
0.352092
0.357365
0.362789
0.368401
0.374195
0.380235
0.38647
0.393008
0.39973
0.406802
0.414031
0.421635
0.429364
0.437458
0.445655
0.454176
0.462789
0.471666
0.480635
0.489788
0.499045
0.508404
0.517891
0.527402
0.537073
0.546706
0.556526
0.566274
0.576222
0.586092
0.596169
0.606168
0.616406
0.62654
0.636991
0.647289
0.658013
0.668545
0.679591
0.690464
0.701876
0.713209
0.725043
0.736933
0.749277
0.761793
0.774744
0.787958
0.801591
0.815578
0.829931
0.844731
0.859836
0.875447
0.891351
0.907731
0.924505
0.941625
0.959287
0.977255
0.995723
1.01468
1.03395
1.05387
1.07415
1.09486
1.11626
1.13788
1.15959
1.18204
1.20374
1.22637
1.2498
1.27815
1.30953
1.34805
1.39018
1.44016
1.49371
1.55598
1.61897
1.68727
1.75484
1.82738
1.89865
1.97216
2.04359
2.11333
2.18026
2.24234
2.30022
2.3524
2.39746
2.43813
2.4682
2.49533
2.51031
2.52216
2.52248
2.5192
2.50398
2.48593
2.45503
2.41831
2.37388
2.31306
2.25179
2.17097
2.0808
1.98718
1.87031
1.76187
1.6482
1.52914
1.38741
1.24316
1.11171
0.00105865
0.00139746
0.00212938
0.00323071
0.00466514
0.0064312
0.00853117
0.0109506
0.0136671
0.0166635
0.0199253
0.0234343
0.0271689
0.0311118
0.0352455
0.0395523
0.0440072
0.0485934
0.0532912
0.0580919
0.0629732
0.0679246
0.0729206
0.0779569
0.0830119
0.088088
0.0931631
0.0982417
0.103299
0.108344
0.113351
0.118335
0.123272
0.12818
0.133035
0.137858
0.142624
0.147355
0.152027
0.156665
0.161245
0.165792
0.170284
0.174748
0.17916
0.18355
0.187892
0.19222
0.196502
0.200779
0.205014
0.209251
0.213451
0.217663
0.221843
0.226041
0.230215
0.234415
0.238597
0.24281
0.247015
0.251253
0.255499
0.259771
0.264072
0.268391
0.272759
0.277133
0.281578
0.286017
0.290539
0.295048
0.299647
0.304229
0.308902
0.313565
0.318317
0.323074
0.327926
0.332808
0.337798
0.342852
0.348037
0.353322
0.35877
0.364345
0.37012
0.376033
0.382185
0.388463
0.395018
0.401664
0.408621
0.41562
0.42295
0.430277
0.437937
0.445563
0.453503
0.461394
0.469569
0.477689
0.486069
0.494389
0.502961
0.511456
0.520222
0.528881
0.537849
0.546677
0.555853
0.564872
0.574253
0.583508
0.593077
0.602622
0.612369
0.622258
0.632206
0.642475
0.652698
0.663371
0.673983
0.685089
0.696215
0.707818
0.719546
0.731773
0.744144
0.757144
0.770208
0.784047
0.797909
0.81256
0.82733
0.842736
0.8585
0.874622
0.891422
0.908324
0.926088
0.943919
0.962577
0.98143
1.00096
1.02093
1.04132
1.06239
1.08369
1.10563
1.12771
1.14978
1.1718
1.19404
1.21738
1.24474
1.27534
1.30958
1.34766
1.39023
1.43732
1.49039
1.5507
1.61306
1.68263
1.75067
1.82344
1.8947
1.97033
2.04299
2.11666
2.18538
2.25211
2.31148
2.36766
2.41392
2.45705
2.48892
2.51683
2.53462
2.5461
2.54932
2.54509
2.53219
2.51207
2.48397
2.44324
2.40265
2.33771
2.27944
2.19669
2.1085
2.01329
1.90087
1.78142
1.66385
1.53743
1.40341
1.25897
1.13124
0.00156457
0.0019037
0.00263701
0.00374224
0.00518483
0.00696268
0.00907648
0.0115111
0.0142441
0.0172581
0.0205384
0.0240663
0.0278196
0.0317809
0.0359324
0.040256
0.0447266
0.0493269
0.0540377
0.0588492
0.0637403
0.0686987
0.0737013
0.0787406
0.083799
0.0888741
0.0939497
0.0990234
0.104079
0.109115
0.114119
0.119091
0.124023
0.128916
0.133765
0.138571
0.14333
0.148043
0.152707
0.157327
0.161897
0.166426
0.170908
0.175355
0.179756
0.18413
0.188461
0.192772
0.197045
0.201304
0.205531
0.20975
0.213945
0.218137
0.222313
0.226493
0.230663
0.234845
0.239024
0.24322
0.247423
0.251646
0.255886
0.260149
0.26444
0.268753
0.273107
0.277482
0.281906
0.286352
0.290849
0.295373
0.299946
0.304553
0.309205
0.313905
0.318649
0.32346
0.328321
0.333274
0.338294
0.343435
0.348666
0.354045
0.359544
0.365207
0.37102
0.376995
0.383147
0.38944
0.395929
0.402523
0.409324
0.416188
0.423259
0.430354
0.437648
0.444937
0.452416
0.45987
0.467513
0.475112
0.482914
0.490654
0.498623
0.506518
0.514672
0.522752
0.531116
0.539424
0.548028
0.556613
0.565484
0.574402
0.58356
0.592868
0.602331
0.612084
0.621878
0.632119
0.642299
0.653058
0.663701
0.675005
0.686202
0.698093
0.709928
0.722472
0.735029
0.748279
0.761655
0.775618
0.789911
0.804593
0.819841
0.835301
0.851478
0.867812
0.884886
0.9022
0.920119
0.938532
0.957271
0.976784
0.996523
1.01704
1.03792
1.05946
1.08136
1.10411
1.12643
1.14964
1.17184
1.19441
1.21715
1.24453
1.2744
1.30881
1.3467
1.38905
1.43602
1.48713
1.54702
1.60773
1.67549
1.74281
1.81481
1.88675
1.96343
2.03849
2.11534
2.18788
2.25905
2.32284
2.38328
2.43388
2.48011
2.51592
2.54569
2.56684
2.57918
2.58539
2.5806
2.57101
2.54817
2.52389
2.47936
2.44108
2.37479
2.31468
2.23447
2.14331
2.04739
1.94173
1.80936
1.69838
1.57118
1.43167
1.29986
1.15731
0.00217961
0.0025191
0.00325405
0.004364
0.00581644
0.0076086
0.00973911
0.0121921
0.0149448
0.0179804
0.0212828
0.0248335
0.0286092
0.0325928
0.0367654
0.0411094
0.0455986
0.0502161
0.0549422
0.0597668
0.0646694
0.0696364
0.0746462
0.0796896
0.0847509
0.0898258
0.0949003
0.0999699
0.10502
0.110049
0.115044
0.120006
0.124927
0.129808
0.134643
0.139435
0.144179
0.148877
0.153525
0.158129
0.162682
0.167195
0.17166
0.17609
0.180475
0.184831
0.189147
0.193441
0.197699
0.201941
0.206155
0.210357
0.214539
0.218715
0.222879
0.227042
0.231202
0.235368
0.239537
0.243719
0.247911
0.252122
0.256352
0.260603
0.264884
0.269189
0.27353
0.277899
0.282306
0.28675
0.291227
0.295753
0.300301
0.304917
0.309542
0.314257
0.318974
0.323805
0.328639
0.333619
0.338609
0.343778
0.348969
0.354374
0.359812
0.365487
0.371211
0.377173
0.3832
0.389444
0.395769
0.402268
0.408863
0.415584
0.422406
0.429314
0.436321
0.443385
0.450548
0.45775
0.465058
0.472394
0.479856
0.487342
0.494976
0.502652
0.510485
0.518406
0.526477
0.534703
0.54306
0.551648
0.560345
0.569352
0.578437
0.587924
0.597433
0.607462
0.617427
0.628045
0.638503
0.649733
0.660743
0.672592
0.684223
0.696704
0.709028
0.72217
0.735248
0.749086
0.762975
0.77752
0.792282
0.807543
0.823232
0.839244
0.8559
0.872707
0.89037
0.908032
0.926694
0.945313
0.964937
0.984566
1.00517
1.02592
1.04737
1.06948
1.09154
1.11503
1.13786
1.16193
1.18491
1.20813
1.2295
1.25484
1.28236
1.31436
1.35019
1.39007
1.43427
1.48408
1.53875
1.60096
1.66965
1.73903
1.81097
1.8858
1.96272
2.04137
2.11917
2.19615
2.26875
2.33754
2.39911
2.45468
2.50134
2.54147
2.57129
2.59578
2.60825
2.61723
2.61238
2.60576
2.58251
2.56083
2.51662
2.47935
2.41388
2.3553
2.27289
2.18664
2.08477
1.98081
1.84749
1.73661
1.6018
1.46971
1.32598
1.18111
0.00290832
0.00324821
0.00398504
0.00510051
0.00656453
0.00837358
0.0105237
0.0129983
0.0157744
0.0188351
0.0221636
0.0257411
0.029543
0.0335528
0.03775
0.0421179
0.0466286
0.0512664
0.0560096
0.0608501
0.0657648
0.0707428
0.0757592
0.0808086
0.0858711
0.0909476
0.0960179
0.101085
0.106126
0.111149
0.116131
0.121085
0.125988
0.130858
0.135673
0.140454
0.145175
0.14986
0.154484
0.159074
0.163603
0.168101
0.172542
0.176956
0.181318
0.185659
0.189952
0.19423
0.198466
0.202693
0.206886
0.211073
0.215235
0.219397
0.223541
0.227693
0.231833
0.235987
0.240139
0.244308
0.248487
0.252683
0.256903
0.261139
0.265412
0.269701
0.274036
0.278391
0.282791
0.287225
0.291688
0.296212
0.300737
0.305356
0.309945
0.314666
0.319329
0.324161
0.328916
0.333879
0.338755
0.343875
0.348907
0.354214
0.359437
0.364957
0.370405
0.376149
0.381839
0.387801
0.393736
0.399902
0.406071
0.412426
0.418808
0.425341
0.431912
0.438624
0.445379
0.452283
0.459233
0.46635
0.473526
0.480892
0.488337
0.496003
0.503758
0.511785
0.519889
0.528334
0.536829
0.545736
0.554671
0.564076
0.573494
0.583438
0.593371
0.6039
0.614367
0.625512
0.636536
0.648296
0.659918
0.672266
0.684539
0.697457
0.710431
0.723928
0.737645
0.751752
0.766255
0.780998
0.79633
0.811748
0.827938
0.844135
0.861201
0.878298
0.896297
0.914371
0.933361
0.952474
0.972467
0.992636
1.01358
1.0349
1.05662
1.07918
1.1016
1.12532
1.14874
1.17313
1.19677
1.22074
1.24297
1.26544
1.29279
1.32476
1.36057
1.40111
1.44674
1.49796
1.55392
1.61842
1.68334
1.7543
1.82493
1.9019
1.97784
2.05861
2.13577
2.21478
2.28667
2.35784
2.4183
2.47672
2.52216
2.56482
2.59445
2.62003
2.63435
2.64269
2.64181
2.6335
2.61573
2.59223
2.55373
2.51575
2.45424
2.39702
2.31558
2.23208
2.12954
2.02513
1.89779
1.76414
1.64842
1.51086
1.35281
1.21353
0.0037562
0.00409655
0.00483546
0.00595725
0.0074346
0.00926324
0.0114361
0.0139357
0.0167385
0.0198285
0.0231869
0.0267953
0.0306271
0.0346671
0.0388923
0.0432877
0.0478226
0.0524836
0.0572459
0.0621045
0.0670325
0.0720229
0.0770463
0.0821024
0.0871658
0.0922437
0.0973089
0.102373
0.107403
0.112419
0.117385
0.122328
0.127212
0.13207
0.136862
0.141628
0.146324
0.150992
0.155591
0.160162
0.164666
0.169144
0.17356
0.177954
0.182292
0.186612
0.190882
0.195139
0.199353
0.20356
0.20773
0.211901
0.216039
0.220187
0.224307
0.228446
0.232563
0.236706
0.240835
0.244995
0.249152
0.253338
0.25754
0.261765
0.266025
0.270301
0.274628
0.278973
0.283366
0.287798
0.292256
0.296789
0.301306
0.30595
0.310526
0.315284
0.319923
0.324796
0.32951
0.334503
0.339306
0.344429
0.349342
0.354608
0.359654
0.36507
0.370269
0.375836
0.381202
0.386912
0.392449
0.39829
0.403983
0.409945
0.415779
0.42188
0.427849
0.434123
0.440239
0.44673
0.45304
0.459795
0.466376
0.473436
0.480376
0.487782
0.495157
0.502961
0.510822
0.519089
0.527462
0.536261
0.545157
0.554547
0.563979
0.574001
0.583975
0.59465
0.605167
0.616474
0.627551
0.639419
0.651093
0.663432
0.675741
0.688507
0.701453
0.714669
0.728244
0.741961
0.756183
0.770441
0.785376
0.800227
0.815943
0.83155
0.848085
0.8647
0.882158
0.899904
0.918454
0.937371
0.957039
0.977137
0.997815
1.01911
1.0405
1.0629
1.08511
1.10847
1.13117
1.15503
1.17661
1.20155
1.22565
1.25509
1.28738
1.32476
1.36414
1.4103
1.45945
1.51745
1.57618
1.64267
1.70873
1.7804
1.85116
1.92858
2.00388
2.08407
2.15978
2.23797
2.30826
2.37897
2.4382
2.49653
2.54147
2.584
2.61401
2.63954
2.65479
2.66417
2.66403
2.65901
2.6415
2.62343
2.58562
2.55276
2.49437
2.43907
2.36293
2.27786
2.18193
2.06991
1.94991
1.8196
1.70276
1.54883
1.39802
1.24889
0.00472986
0.00507064
0.00581186
0.00694068
0.00843329
0.0102841
0.012483
0.0150109
0.0178445
0.0209672
0.02436
0.0280029
0.0318693
0.0359424
0.0402003
0.0446251
0.0491888
0.0538736
0.0586596
0.0635353
0.0684811
0.0734813
0.0785163
0.0835748
0.0886436
0.0937171
0.0987818
0.103835
0.10886
0.11386
0.118815
0.123739
0.128608
0.133443
0.138217
0.142958
0.147633
0.152276
0.156852
0.161397
0.165877
0.170328
0.17472
0.179088
0.183401
0.187695
0.191941
0.196174
0.200363
0.204549
0.208692
0.212845
0.216955
0.221089
0.225181
0.229308
0.233397
0.23753
0.241632
0.245783
0.249914
0.254094
0.25827
0.26249
0.266726
0.271001
0.275306
0.279656
0.284034
0.288478
0.292932
0.29749
0.302022
0.306704
0.311321
0.316132
0.320839
0.325782
0.330583
0.335657
0.340555
0.345756
0.350752
0.356071
0.361166
0.366588
0.371776
0.377283
0.382552
0.388125
0.393458
0.399083
0.404462
0.410144
0.415557
0.421312
0.426766
0.432634
0.438172
0.444201
0.449901
0.456138
0.462099
0.468582
0.474907
0.481684
0.488458
0.495599
0.502877
0.510471
0.518287
0.526421
0.534804
0.543538
0.55252
0.56188
0.571474
0.581461
0.591648
0.602233
0.612982
0.624108
0.635417
0.647021
0.658912
0.670968
0.683462
0.695979
0.709114
0.722123
0.735931
0.749526
0.764023
0.77837
0.793556
0.808887
0.824775
0.841292
0.858023
0.875719
0.893544
0.912346
0.931318
0.95114
0.971291
0.991776
1.01289
1.03402
1.05554
1.077
1.09769
1.11888
1.14045
1.16724
1.19658
1.23095
1.26827
1.30989
1.35688
1.40892
1.46683
1.52841
1.59255
1.65972
1.72903
1.80194
1.87518
1.95227
2.02723
2.10609
2.17964
2.25641
2.32427
2.394
2.45188
2.5096
2.55469
2.59696
2.62813
2.65427
2.67084
2.6827
2.68344
2.6831
2.66675
2.65366
2.62005
2.58862
2.53919
2.48128
2.41392
2.32804
2.23371
2.12402
2.00039
1.87223
1.75825
1.59412
1.44616
1.28978
0.00583707
0.00617821
0.00692197
0.00805847
0.00956833
0.0114441
0.0136725
0.0162321
0.0191004
0.0222598
0.0256913
0.0293726
0.0332779
0.0373876
0.0416819
0.0461394
0.0507347
0.0554461
0.0602574
0.0651525
0.0701164
0.0751283
0.0801738
0.0852363
0.0903082
0.0953784
0.100439
0.105483
0.110498
0.115482
0.120423
0.125326
0.130176
0.134988
0.139739
0.144454
0.149105
0.15372
0.158269
0.162785
0.167237
0.17166
0.176024
0.180363
0.184648
0.188915
0.193132
0.197339
0.201502
0.205661
0.209781
0.213906
0.217997
0.222101
0.226177
0.230275
0.23435
0.238456
0.242544
0.24667
0.250787
0.254945
0.259105
0.26331
0.267525
0.271794
0.276074
0.280426
0.284781
0.289235
0.293676
0.298245
0.302786
0.30748
0.312134
0.316956
0.321731
0.326681
0.331578
0.336648
0.341663
0.346837
0.351956
0.357211
0.362414
0.367722
0.372984
0.378317
0.383607
0.388943
0.394234
0.399559
0.404833
0.410153
0.415405
0.420747
0.425991
0.431389
0.436661
0.442152
0.447516
0.453134
0.458676
0.464462
0.470265
0.476279
0.482416
0.488743
0.495274
0.502014
0.509
0.516241
0.523751
0.531542
0.539638
0.547996
0.556695
0.56562
0.574884
0.584368
0.594139
0.604156
0.61442
0.624929
0.635733
0.646717
0.658143
0.669634
0.681764
0.693858
0.706746
0.719576
0.733252
0.746978
0.761444
0.776229
0.791482
0.807405
0.823541
0.840498
0.857685
0.875524
0.893786
0.912399
0.931569
0.950864
0.9705
0.990268
1.0095
1.02917
1.04784
1.07039
1.09441
1.12319
1.15653
1.19541
1.23897
1.28684
1.34186
1.40221
1.46506
1.5283
1.59586
1.66417
1.73602
1.80919
1.88348
1.96019
2.0352
2.1132
2.18655
2.26219
2.33029
2.39897
2.45777
2.51504
2.56162
2.60437
2.63766
2.66496
2.68466
2.698
2.70302
2.70447
2.6934
2.68195
2.65488
2.62456
2.58142
2.52613
2.46118
2.38014
2.28442
2.17999
2.04958
1.9271
1.80521
1.65268
1.49977
1.34446
0.00708692
0.00742836
0.00817479
0.00931966
0.0108487
0.0127525
0.0150138
0.0176088
0.0205158
0.023716
0.0271905
0.0309145
0.0348626
0.0390131
0.043347
0.0478408
0.0524699
0.0572109
0.0620485
0.0669656
0.0719473
0.0769731
0.0820271
0.0870956
0.092167
0.0972363
0.102288
0.107325
0.112323
0.117295
0.122213
0.127099
0.131921
0.136712
0.141433
0.146124
0.150741
0.155331
0.159845
0.164335
0.16875
0.173149
0.177473
0.18179
0.186034
0.190282
0.194457
0.198648
0.202766
0.206914
0.210989
0.215105
0.219151
0.223249
0.227281
0.231374
0.235407
0.239508
0.243557
0.247679
0.251757
0.255914
0.260035
0.264242
0.268416
0.272692
0.27693
0.281291
0.285606
0.290068
0.294476
0.29905
0.303567
0.308263
0.312901
0.317727
0.322493
0.327452
0.332345
0.337431
0.342445
0.347638
0.352769
0.35804
0.36328
0.368599
0.373936
0.379281
0.384697
0.390058
0.395528
0.400909
0.40641
0.411823
0.41734
0.422802
0.428335
0.433859
0.439426
0.445017
0.450658
0.456318
0.462082
0.467833
0.473768
0.479664
0.485816
0.491944
0.498366
0.504825
0.511595
0.518465
0.525679
0.533006
0.54075
0.54855
0.556857
0.565141
0.573976
0.582747
0.592034
0.601285
0.61097
0.620698
0.630805
0.641029
0.651659
0.662441
0.673729
0.685178
0.697254
0.709483
0.722414
0.735547
0.749332
0.763464
0.778052
0.793214
0.808546
0.824657
0.840745
0.857696
0.874504
0.892216
0.909657
0.927921
0.946141
0.964317
0.982621
1.00031
1.01908
1.04097
1.06641
1.09761
1.13366
1.1743
1.22244
1.27345
1.33248
1.394
1.46346
1.53058
1.60133
1.67062
1.74376
1.81628
1.89076
1.96568
2.04038
2.11615
2.18909
2.26284
2.3306
2.39844
2.4571
2.51501
2.56186
2.60675
2.64111
2.6717
2.69366
2.71072
2.71953
2.72419
2.71868
2.70971
2.68827
2.66234
2.62029
2.5748
2.50457
2.43526
2.3341
2.23496
2.1049
1.97561
1.82447
1.69373
1.53822
1.37529
0.00849001
0.00883171
0.00958084
0.0107348
0.012285
0.0142199
0.0165177
0.0191521
0.0221017
0.0253472
0.0288691
0.0326401
0.036635
0.04083
0.0452072
0.0497403
0.0544061
0.0591787
0.0640446
0.0689847
0.0739851
0.0790249
0.0840876
0.0891613
0.0942315
0.0992981
0.10434
0.109367
0.114347
0.119303
0.124196
0.129062
0.133855
0.138621
0.143309
0.147973
0.152554
0.157115
0.161591
0.166052
0.170428
0.174798
0.179082
0.183372
0.187574
0.191797
0.19593
0.2001
0.204174
0.208305
0.212333
0.216438
0.220435
0.224527
0.228509
0.2326
0.236582
0.240684
0.244683
0.248809
0.252838
0.257
0.261073
0.265288
0.269415
0.273699
0.277892
0.282262
0.286534
0.291005
0.295373
0.299958
0.304438
0.309151
0.313754
0.318605
0.323337
0.32833
0.333192
0.338326
0.343328
0.348589
0.353742
0.359106
0.364422
0.369867
0.375355
0.380873
0.386532
0.392132
0.397955
0.403658
0.409632
0.415461
0.421572
0.427534
0.43377
0.439858
0.446213
0.452407
0.458889
0.465166
0.471787
0.478143
0.484921
0.491386
0.498335
0.504984
0.512135
0.519051
0.526467
0.53371
0.541486
0.549072
0.557302
0.565228
0.573945
0.582224
0.591375
0.600031
0.609529
0.618572
0.628347
0.637773
0.647834
0.657659
0.668119
0.678463
0.689426
0.700513
0.712054
0.724052
0.736249
0.749238
0.762194
0.776109
0.789916
0.804658
0.819335
0.834826
0.85043
0.866702
0.883099
0.900008
0.917213
0.9347
0.953182
0.971004
0.98984
1.00714
1.02546
1.04688
1.07253
1.10247
1.13763
1.17719
1.22268
1.27294
1.32959
1.39172
1.46137
1.52937
1.60087
1.66974
1.74287
1.81388
1.88842
1.96151
2.0366
2.11071
2.1841
2.25676
2.32503
2.39264
2.45236
2.511
2.56005
2.60661
2.64447
2.67766
2.70445
2.72445
2.73988
2.74668
2.74944
2.74197
2.72813
2.70514
2.66703
2.62652
2.55686
2.49199
2.39057
2.29226
2.16469
2.03126
1.88147
1.73856
1.59772
1.42164
0.0100587
0.0104006
0.0111523
0.012316
0.0138895
0.0158589
0.0181968
0.0208748
0.0238711
0.0271666
0.0307399
0.0345628
0.0386082
0.0428522
0.0472754
0.0518516
0.0565558
0.061363
0.0662577
0.0712226
0.0762418
0.0812957
0.0863669
0.0914441
0.0965135
0.101573
0.106607
0.111617
0.116582
0.121514
0.126387
0.131221
0.13599
0.14072
0.145381
0.150004
0.154557
0.159073
0.163522
0.167936
0.172286
0.176606
0.180867
0.185105
0.189287
0.193458
0.197571
0.201689
0.205747
0.209826
0.213841
0.217895
0.221881
0.225923
0.229896
0.233938
0.237914
0.241968
0.245963
0.250042
0.254069
0.258186
0.26226
0.266428
0.270561
0.274795
0.279
0.283314
0.287604
0.292012
0.296401
0.300915
0.305413
0.310045
0.314659
0.319416
0.324153
0.329037
0.333898
0.338906
0.343891
0.349011
0.354124
0.35935
0.3646
0.369934
0.375333
0.380789
0.386351
0.39195
0.397688
0.403454
0.409377
0.415322
0.421432
0.427556
0.433845
0.440133
0.446581
0.453009
0.459589
0.46613
0.472821
0.479464
0.486259
0.49302
0.499943
0.506863
0.513965
0.521098
0.528449
0.535853
0.543513
0.551245
0.559245
0.567351
0.575697
0.584195
0.592886
0.601763
0.610806
0.620049
0.629449
0.639072
0.648848
0.658906
0.669109
0.679704
0.690427
0.701675
0.713043
0.725006
0.737142
0.74985
0.762825
0.776297
0.790082
0.804356
0.818863
0.833965
0.849192
0.86509
0.881075
0.897647
0.914361
0.931728
0.94916
0.967067
0.984825
1.00227
1.0192
1.03645
1.05928
1.08626
1.11943
1.15757
1.20233
1.2513
1.30824
1.36828
1.43902
1.50788
1.5814
1.65168
1.72658
1.79867
1.87504
1.94909
2.02588
2.10097
2.17585
2.24963
2.31934
2.38831
2.44999
2.51034
2.56243
2.61123
2.65338
2.68953
2.72149
2.74538
2.76594
2.7781
2.78441
2.78413
2.77166
2.75594
2.71985
2.68175
2.61944
2.54795
2.46001
2.34862
2.23227
2.08976
1.93836
1.78821
1.63613
1.4778
0.0118074
0.0121494
0.0129036
0.0140776
0.0156763
0.0176838
0.0200659
0.0227916
0.025839
0.0291891
0.0328184
0.0366977
0.0407977
0.0450947
0.0495671
0.0541895
0.0589344
0.063778
0.0687029
0.0736932
0.0787313
0.083799
0.0888782
0.0939574
0.0990248
0.104076
0.109098
0.11409
0.119037
0.123942
0.128791
0.133591
0.138333
0.143022
0.147654
0.152232
0.156755
0.161224
0.165641
0.170006
0.174324
0.178594
0.182825
0.187013
0.191167
0.195287
0.199376
0.203442
0.207479
0.211506
0.215503
0.219506
0.223477
0.227468
0.231429
0.235423
0.239388
0.243396
0.247382
0.251417
0.255437
0.259511
0.263581
0.267706
0.271837
0.276025
0.280231
0.284495
0.288784
0.293134
0.297513
0.301956
0.306426
0.310963
0.315521
0.320143
0.324779
0.329475
0.334178
0.338934
0.343697
0.348508
0.35333
0.358205
0.363098
0.36806
0.373051
0.378139
0.383267
0.388523
0.393832
0.399294
0.404823
0.410514
0.416285
0.422212
0.428224
0.434376
0.440601
0.446955
0.453353
0.45988
0.466413
0.473087
0.479745
0.486549
0.493356
0.500294
0.5073
0.514405
0.521663
0.529
0.536536
0.544188
0.551995
0.560042
0.568123
0.576603
0.585017
0.59392
0.602767
0.612086
0.621453
0.63124
0.641157
0.651509
0.66196
0.672958
0.683958
0.695617
0.707246
0.71952
0.731874
0.74473
0.75784
0.771333
0.785105
0.799366
0.813635
0.828749
0.843525
0.85934
0.874882
0.891077
0.90766
0.924093
0.94165
0.958352
0.975952
0.992422
1.00931
1.02622
1.04962
1.07629
1.10982
1.14822
1.19424
1.24356
1.30076
1.36118
1.43048
1.49837
1.57141
1.64216
1.71675
1.78954
1.86531
1.94041
2.01667
2.09347
2.16837
2.24446
2.31501
2.38672
2.45026
2.51382
2.56876
2.62141
2.66681
2.70766
2.74223
2.77221
2.79362
2.81394
2.81917
2.82844
2.81475
2.80725
2.77254
2.739
2.68067
2.61134
2.5262
2.41794
2.29795
2.16068
2.0056
1.83934
1.68759
1.53032
0.0137529
0.0140948
0.0148512
0.0160359
0.0176622
0.0197114
0.0221417
0.0249196
0.0280227
0.0314322
0.0351223
0.0390625
0.0432213
0.047575
0.0521
0.0567711
0.0615591
0.0664404
0.0713968
0.0764124
0.08147
0.0865501
0.0916368
0.0967156
0.10178
0.106819
0.111829
0.116798
0.121725
0.126598
0.131422
0.136184
0.140894
0.145541
0.150138
0.154671
0.159156
0.163578
0.167956
0.172274
0.176552
0.180776
0.184966
0.189109
0.193223
0.1973
0.20135
0.205375
0.209375
0.213362
0.217325
0.221288
0.225228
0.229183
0.233113
0.237074
0.241009
0.24499
0.248943
0.252956
0.256943
0.261
0.265035
0.269145
0.273244
0.277417
0.28159
0.285835
0.29009
0.294412
0.298748
0.303149
0.307559
0.312028
0.316499
0.321019
0.325531
0.330082
0.334614
0.339182
0.343719
0.348304
0.352849
0.357475
0.362055
0.366768
0.371433
0.37629
0.38111
0.386171
0.391217
0.396531
0.401862
0.40746
0.41311
0.419
0.424969
0.431137
0.437397
0.443814
0.450315
0.456946
0.463635
0.470447
0.477286
0.484256
0.491234
0.498362
0.505491
0.512797
0.520107
0.527629
0.53515
0.542947
0.550691
0.558841
0.566829
0.575391
0.583699
0.592695
0.601439
0.610885
0.620168
0.630111
0.639982
0.65048
0.660949
0.672039
0.683107
0.694795
0.706474
0.718752
0.731067
0.743937
0.756886
0.770385
0.783955
0.798136
0.812299
0.827116
0.842032
0.857268
0.873135
0.888756
0.905454
0.921792
0.938974
0.956221
0.973484
0.990662
1.00758
1.02488
1.04717
1.07276
1.10443
1.14048
1.18282
1.22935
1.28426
1.34273
1.41065
1.47672
1.54703
1.6171
1.69131
1.76581
1.84247
1.92028
1.99763
2.07719
2.15307
2.23183
2.30377
2.37846
2.44424
2.51163
2.56964
2.62724
2.67609
2.72284
2.76079
2.79715
2.82191
2.84809
2.8578
2.87052
2.86481
2.85614
2.8341
2.79549
2.75074
2.67822
2.59944
2.49549
2.3718
2.2405
2.08124
1.91775
1.76167
1.59688
0.0159147
0.0162562
0.0170144
0.0182102
0.0198661
0.0219611
0.0244441
0.0272788
0.0304422
0.0339161
0.0376718
0.0416776
0.0458993
0.0503133
0.0548942
0.0596164
0.0644496
0.0693696
0.0743584
0.0793989
0.0844759
0.0895668
0.09466
0.099736
0.104795
0.109819
0.114813
0.119757
0.124661
0.1295
0.134293
0.139014
0.143689
0.14829
0.152847
0.157333
0.161775
0.166149
0.170481
0.174752
0.178983
0.183162
0.187304
0.191405
0.195471
0.199507
0.203511
0.207498
0.211453
0.215404
0.219323
0.223254
0.227151
0.231078
0.234965
0.238903
0.242793
0.246758
0.250665
0.254667
0.258607
0.262657
0.266647
0.27075
0.274808
0.278972
0.283111
0.287342
0.291569
0.295873
0.300186
0.304562
0.308949
0.31339
0.317832
0.322321
0.326792
0.331312
0.33579
0.340335
0.344808
0.34939
0.353869
0.358524
0.36305
0.367832
0.372477
0.377451
0.382301
0.387531
0.392672
0.398211
0.403706
0.409592
0.415468
0.42172
0.427963
0.434581
0.441149
0.448104
0.454946
0.462184
0.469253
0.476706
0.483961
0.491569
0.498976
0.506707
0.514235
0.522085
0.529728
0.537704
0.545494
0.55362
0.561596
0.569931
0.578134
0.586751
0.595241
0.604203
0.613056
0.622435
0.631687
0.641574
0.651257
0.661678
0.671892
0.68283
0.693658
0.705171