/*--------------------------------*- C++ -*----------------------------------*\
  =========                 |
  \\      /  F ield         | OpenFOAM: The Open Source CFD Toolbox
   \\    /   O peration     | Website:  https://openfoam.org
    \\  /    A nd           | Version:  8
     \\/     M anipulation  |
\*---------------------------------------------------------------------------*/
FoamFile
{
    version     2.0;
    format      ascii;
    class       volScalarField;
    location    "100";
    object      nut;
}
// * * * * * * * * * * * * * * * * * * * * * * * * * * * * * * * * * * * * * //

dimensions      [0 2 -1 0 0 0 0];

internalField   nonuniform List<scalar> 
65000
(
0.000851369
0.000850007
0.000848684
0.000847374
0.000846105
0.000844846
0.000843629
0.000842419
0.00084125
0.000840091
0.000838966
0.000837857
0.000836775
0.000835716
0.000834674
0.000833665
0.000832662
0.000831702
0.000830735
0.000829824
0.000828892
0.000828028
0.000827132
0.000826313
0.000825451
0.000824676
0.000823849
0.000823117
0.000822323
0.000821632
0.00082087
0.00082022
0.00081949
0.000818878
0.00081818
0.000817605
0.00081694
0.000816398
0.000815767
0.000815254
0.00081466
0.000814172
0.000813616
0.000813149
0.000812634
0.000812187
0.00081171
0.000811283
0.000810842
0.000810438
0.000810027
0.00080965
0.000809264
0.000808918
0.000808552
0.000808236
0.000807892
0.000807602
0.000807285
0.00080701
0.00080673
0.000806461
0.000806228
0.000805954
0.000805775
0.000805486
0.00080536
0.000805046
0.000804955
0.000804597
0.000804503
0.000804066
0.00080391
0.000803344
0.000803046
0.000802295
0.000801772
0.000800793
0.000799983
0.000798774
0.000797667
0.000796289
0.000794949
0.000793537
0.000792112
0.000790862
0.000789567
0.000788705
0.000787786
0.000787525
0.000787206
0.000787698
0.000788136
0.000789435
0.000790681
0.000792721
0.000794707
0.000797309
0.000799854
0.000802753
0.000805595
0.000808489
0.000811328
0.000813937
0.000816482
0.000818608
0.000820615
0.000822175
0.000823494
0.000824513
0.000825111
0.000825682
0.000825652
0.000825882
0.000825422
0.000825386
0.000824741
0.000824485
0.000823863
0.000823434
0.000822937
0.000822404
0.000822022
0.00082146
0.000821122
0.000820585
0.000820224
0.000819749
0.000819349
0.000818974
0.000818597
0.00081836
0.000818129
0.000818076
0.000818094
0.000818284
0.000818577
0.000819018
0.000819567
0.000820153
0.000820919
0.000821482
0.000822378
0.000822837
0.000823666
0.00082409
0.000824639
0.000825075
0.000825306
0.000825657
0.000825591
0.000825687
0.000825148
0.000824882
0.000823824
0.00082419
0.000824444
0.000826773
0.000831673
0.000839431
0.000850498
0.000863565
0.000880831
0.000897871
0.000916461
0.000933957
0.000952711
0.000969558
0.000987067
0.00100232
0.00101769
0.00103095
0.00104399
0.00105516
0.00106593
0.00107491
0.0010832
0.00108989
0.00109527
0.00109975
0.00110235
0.00110472
0.00110554
0.00110619
0.00110592
0.0011063
0.00110426
0.00110606
0.00110243
0.00110426
0.00110225
0.00110101
0.00110109
0.00109959
0.00109781
0.00110295
0.00111263
0.00111459
0.00111424
0.00111732
0.000851367
0.000850009
0.000848681
0.000847377
0.000846102
0.00084485
0.000843624
0.000842425
0.000841245
0.000840097
0.000838961
0.000837865
0.000836769
0.000835724
0.000834669
0.000833673
0.000832657
0.000831709
0.000830732
0.00082983
0.000828891
0.000828034
0.000827132
0.000826318
0.000825454
0.000824681
0.000823852
0.000823121
0.000822326
0.000821637
0.000820874
0.000820226
0.000819493
0.000818884
0.000818185
0.00081761
0.000816946
0.000816401
0.000815775
0.000815255
0.000814671
0.00081417
0.00081363
0.000813145
0.00081265
0.00081218
0.000811729
0.000811274
0.000810862
0.000810426
0.000810049
0.000809636
0.000809286
0.000808901
0.000808574
0.000808219
0.000807913
0.000807583
0.000807304
0.000806991
0.000806747
0.000806442
0.000806244
0.000805937
0.00080579
0.000805471
0.000805375
0.000805032
0.00080497
0.000804579
0.000804512
0.000804033
0.000803899
0.000803278
0.000802995
0.00080217
0.000801657
0.000800586
0.000799791
0.000798474
0.000797406
0.000795912
0.000794658
0.000793135
0.000791864
0.000790528
0.000789467
0.000788568
0.00078796
0.000787738
0.000787798
0.000788425
0.000789296
0.00079084
0.000792564
0.000794964
0.000797473
0.000800547
0.000803671
0.000807156
0.000810643
0.000814247
0.000817795
0.000821259
0.000824559
0.000827691
0.00083048
0.000833163
0.000835282
0.000837462
0.000838881
0.000840539
0.000841348
0.000842498
0.000842855
0.000843534
0.000843611
0.000843882
0.000843811
0.000843763
0.00084361
0.00084335
0.000843117
0.000842745
0.000842396
0.000841976
0.000841487
0.000841045
0.000840449
0.000839992
0.000839385
0.000838938
0.000838443
0.000838068
0.000837776
0.000837565
0.000837495
0.000837506
0.000837635
0.000837824
0.000838111
0.00083836
0.000838764
0.000838978
0.000839429
0.00083958
0.000839959
0.000840045
0.000840248
0.000840253
0.000840209
0.000839996
0.00083953
0.000838875
0.000837899
0.000836964
0.000836594
0.000838015
0.000841638
0.000848424
0.000858377
0.000870708
0.000887342
0.000904031
0.000922124
0.000939934
0.000958492
0.000976167
0.000993597
0.00100978
0.00102493
0.00103892
0.00105145
0.00106285
0.00107284
0.00108123
0.00108861
0.00109372
0.00109815
0.00110039
0.00110186
0.00110219
0.00110156
0.00110103
0.00109922
0.00109921
0.00109632
0.00109774
0.00109476
0.00109529
0.00109598
0.00109208
0.00109604
0.00109455
0.00109355
0.00109323
0.00110562
0.0011124
0.00110662
0.00110917
0.000851366
0.000850011
0.00084868
0.00084738
0.000846099
0.000844854
0.000843622
0.000842429
0.000841242
0.000840102
0.000838959
0.00083787
0.000836769
0.000835729
0.000834669
0.000833679
0.000832658
0.000831715
0.000830734
0.000829835
0.000828895
0.000828038
0.000827138
0.000826322
0.000825461
0.000824686
0.000823861
0.000823127
0.000822335
0.000821643
0.000820884
0.000820232
0.000819505
0.000818889
0.000818198
0.000817613
0.000816961
0.000816402
0.000815793
0.000815254
0.000814689
0.000814169
0.000813647
0.000813147
0.000812665
0.000812185
0.000811739
0.000811284
0.000810869
0.000810441
0.00081005
0.000809656
0.000809283
0.000808927
0.000808566
0.000808249
0.000807901
0.00080762
0.000807289
0.000807033
0.000806731
0.000806489
0.00080623
0.000805985
0.000805782
0.000805522
0.000805378
0.000805087
0.00080499
0.000804649
0.000804562
0.000804141
0.000804007
0.000803463
0.000803209
0.0008025
0.00080206
0.000801156
0.0008005
0.000799412
0.000798571
0.000797367
0.000796443
0.000795259
0.000794419
0.000793444
0.000792892
0.000792337
0.000792279
0.00079234
0.000792941
0.00079376
0.000795108
0.000796739
0.000798828
0.000801222
0.000803954
0.00080696
0.000810156
0.000813555
0.000816983
0.000820535
0.000823932
0.000827432
0.000830542
0.000833834
0.000836452
0.000839412
0.000841426
0.000843953
0.000845352
0.000847377
0.000848214
0.000849713
0.000850063
0.00085106
0.000850995
0.000851551
0.00085115
0.000851345
0.00085069
0.000850607
0.000849782
0.000849496
0.000848562
0.00084814
0.00084714
0.000846634
0.000845617
0.000845073
0.000844109
0.000843568
0.000842744
0.00084224
0.000841626
0.000841185
0.000840795
0.000840427
0.000840221
0.00083991
0.000839828
0.000839544
0.000839538
0.000839308
0.000839282
0.000839194
0.000839049
0.000839075
0.000838843
0.000838847
0.000838593
0.000838321
0.000837937
0.000837209
0.000836351
0.000835327
0.00083469
0.000835832
0.000839021
0.000845222
0.000854743
0.000866635
0.000883389
0.000900035
0.000918789
0.000936816
0.000956063
0.000974601
0.000992943
0.00101068
0.00102675
0.00104245
0.00105543
0.00106806
0.00107773
0.00108649
0.00109284
0.00109747
0.00110054
0.00110167
0.00110192
0.00110072
0.0010994
0.0010971
0.00109545
0.00109358
0.00109173
0.0010916
0.00109002
0.00108993
0.00109176
0.00108826
0.00109317
0.00109347
0.00109094
0.00109906
0.00111075
0.0011188
0.00111081
0.00111608
0.000851366
0.000850011
0.00084868
0.00084738
0.000846101
0.000844854
0.000843624
0.000842428
0.000841246
0.000840101
0.000838963
0.000837869
0.000836774
0.00083573
0.000834675
0.00083368
0.000832665
0.000831717
0.000830742
0.000829839
0.000828903
0.000828044
0.000827147
0.000826329
0.00082547
0.000824694
0.000823871
0.000823136
0.000822347
0.000821652
0.000820897
0.000820241
0.000819519
0.000818898
0.000818213
0.000817623
0.000816976
0.000816414
0.000815806
0.000815269
0.000814699
0.000814188
0.000813654
0.00081317
0.000812667
0.000812212
0.000811739
0.000811313
0.000810867
0.000810473
0.00081005
0.000809688
0.000809287
0.000808958
0.000808576
0.000808279
0.000807918
0.000807649
0.000807314
0.000807065
0.000806764
0.000806523
0.000806268
0.000806026
0.000805823
0.000805573
0.000805421
0.000805156
0.000805039
0.000804751
0.000804637
0.000804308
0.000804147
0.000803755
0.000803493
0.00080301
0.000802606
0.00080202
0.000801469
0.000800801
0.000800152
0.000799464
0.00079882
0.000798219
0.000797727
0.000797343
0.000797163
0.000797128
0.000797402
0.000797819
0.000798639
0.000799562
0.000800947
0.000802376
0.000804266
0.000806141
0.000808413
0.000810624
0.000813113
0.000815515
0.000818053
0.000820497
0.000822923
0.000825257
0.000827425
0.000829522
0.000831327
0.000833091
0.000834476
0.000835838
0.000836788
0.000837717
0.000838232
0.00083874
0.000838824
0.000838958
0.000838624
0.000838443
0.000837736
0.000837292
0.000836308
0.000835645
0.000834507
0.000833669
0.000832491
0.000831546
0.000830401
0.000829433
0.000828369
0.000827453
0.000826522
0.000825696
0.000824938
0.000824218
0.000823634
0.000823029
0.000822574
0.000822098
0.000821699
0.000821363
0.00082099
0.000820728
0.000820442
0.000820165
0.000819994
0.000819728
0.000819573
0.000819441
0.000819227
0.000819147
0.000819093
0.000818662
0.000818545
0.000817734
0.000817042
0.000816062
0.000816425
0.000818398
0.000823769
0.000830938
0.000842078
0.00085435
0.000871623
0.000888565
0.000908553
0.000927435
0.000947815
0.00096747
0.000987702
0.00100708
0.00102536
0.00104245
0.00105749
0.00107062
0.00108195
0.00109028
0.00109785
0.00110162
0.00110542
0.00110566
0.00110625
0.0011041
0.00110295
0.00109953
0.00109784
0.00109518
0.0010926
0.00109282
0.00108974
0.00109116
0.00109137
0.00108969
0.0010947
0.00109258
0.00110112
0.0011101
0.00112394
0.00111725
0.00111753
0.00112655
0.000851366
0.000850011
0.000848682
0.00084738
0.000846103
0.000844853
0.000843628
0.000842428
0.000841251
0.000840101
0.000838969
0.00083787
0.00083678
0.000835731
0.000834682
0.000833683
0.000832673
0.000831721
0.00083075
0.000829845
0.000828912
0.000828051
0.000827157
0.000826338
0.000825482
0.000824704
0.000823885
0.000823146
0.000822363
0.000821663
0.000820916
0.000820252
0.00081954
0.000818911
0.000818235
0.000817638
0.000816997
0.000816432
0.000815825
0.000815291
0.000814716
0.000814214
0.000813668
0.000813198
0.000812681
0.000812243
0.000811752
0.000811346
0.000810882
0.000810505
0.000810068
0.000809721
0.000809309
0.00080899
0.000808605
0.000808312
0.000807953
0.000807684
0.000807356
0.000807102
0.000806811
0.000806567
0.000806318
0.000806076
0.000805874
0.000805631
0.00080547
0.000805223
0.000805089
0.000804833
0.000804701
0.000804422
0.000804258
0.000803937
0.000803708
0.000803328
0.000803015
0.000802577
0.000802194
0.000801728
0.000801329
0.000800903
0.00080058
0.000800286
0.000800152
0.000800083
0.000800243
0.000800468
0.000800993
0.000801536
0.00080244
0.000803279
0.000804517
0.000805592
0.000807064
0.00080829
0.000809872
0.000811156
0.000812728
0.000813973
0.000815426
0.000816533
0.000817792
0.000818683
0.000819707
0.000820328
0.000821102
0.000821425
0.000821944
0.000821977
0.000822235
0.000822014
0.000821992
0.000821578
0.00082125
0.000820703
0.000820065
0.000819421
0.000818512
0.00081778
0.00081669
0.00081587
0.000814715
0.000813824
0.000812703
0.000811812
0.00081077
0.000810002
0.000809056
0.000808509
0.000807712
0.000807387
0.000806824
0.000806649
0.000806376
0.000806274
0.000806299
0.000806227
0.000806494
0.000806503
0.000806891
0.000807051
0.000807483
0.000807807
0.000808233
0.000808735
0.00080915
0.000809747
0.000810189
0.000810741
0.000811151
0.000811377
0.000811165
0.000810814
0.000810078
0.000810981
0.000813101
0.00081714
0.000823014
0.000830938
0.000840981
0.000852682
0.000869439
0.000886837
0.000906663
0.000925379
0.000945661
0.000964917
0.000985888
0.00100543
0.00102532
0.00104298
0.00105999
0.00107376
0.00108669
0.00109563
0.00110394
0.00110848
0.00111221
0.00111345
0.00111356
0.00111236
0.00111049
0.00110794
0.00110489
0.00110341
0.00109872
0.00110018
0.00109525
0.00109732
0.00109651
0.00109569
0.00109912
0.0011014
0.00110078
0.00110279
0.00111867
0.00112095
0.00112098
0.00112297
0.000851367
0.000850012
0.000848682
0.000847381
0.000846105
0.000844856
0.000843629
0.000842431
0.000841253
0.000840105
0.000838972
0.000837874
0.000836784
0.000835736
0.000834688
0.000833688
0.000832681
0.000831727
0.000830761
0.000829851
0.000828926
0.000828057
0.000827174
0.000826344
0.000825502
0.00082471
0.000823908
0.000823153
0.000822391
0.00082167
0.000820947
0.000820259
0.000819575
0.000818919
0.000818271
0.000817649
0.000817035
0.000816446
0.000815862
0.000815309
0.000814753
0.000814235
0.000813705
0.000813223
0.000812718
0.00081227
0.000811792
0.000811373
0.000810925
0.000810533
0.000810115
0.000809748
0.00080936
0.000809018
0.000808658
0.000808342
0.000808008
0.000807716
0.00080741
0.000807139
0.000806864
0.00080661
0.000806367
0.000806128
0.000805916
0.000805689
0.000805504
0.000805287
0.000805112
0.000804899
0.000804715
0.000804492
0.000804273
0.000804026
0.000803752
0.000803468
0.000803137
0.000802822
0.00080246
0.000802152
0.000801818
0.000801579
0.000801358
0.000801267
0.00080125
0.000801374
0.00080163
0.000802005
0.000802558
0.00080317
0.000803985
0.000804777
0.000805769
0.000806651
0.000807706
0.000808575
0.000809575
0.000810329
0.000811179
0.000811735
0.000812373
0.000812676
0.000813072
0.000813101
0.000813251
0.000813019
0.000812935
0.000812482
0.00081219
0.000811571
0.000811105
0.000810383
0.00080977
0.000809011
0.000808266
0.000807528
0.000806667
0.000805988
0.000805039
0.000804433
0.000803447
0.000802914
0.000801959
0.000801494
0.000800635
0.000800254
0.00079954
0.000799276
0.00079876
0.000798618
0.000798366
0.000798322
0.000798369
0.00079841
0.000798717
0.00079887
0.000799357
0.000799666
0.000800253
0.000800767
0.000801375
0.000802122
0.000802746
0.000803633
0.000804373
0.000805315
0.000806176
0.000807207
0.00080802
0.000809273
0.000809852
0.000810827
0.000810893
0.000810981
0.000809969
0.000810904
0.000812639
0.000816598
0.000822461
0.000830307
0.000840121
0.000852235
0.000867218
0.000883788
0.000902616
0.000921016
0.000940885
0.000960198
0.000981344
0.00100158
0.00102256
0.00104162
0.00106031
0.00107589
0.00109046
0.00110125
0.00111068
0.00111682
0.00112108
0.0011236
0.00112368
0.00112362
0.00112099
0.00111976
0.00111513
0.00111488
0.00110863
0.00111016
0.00110502
0.00110557
0.00110532
0.00110438
0.0011045
0.0011113
0.00110432
0.00111591
0.00112382
0.00112189
0.00113225
0.00113248
0.000851367
0.000850012
0.000848683
0.000847383
0.000846105
0.000844859
0.00084363
0.000842437
0.000841254
0.000840112
0.000838974
0.000837882
0.000836788
0.000835744
0.000834694
0.000833696
0.00083269
0.000831735
0.000830773
0.00082986
0.000828941
0.000828068
0.000827191
0.000826357
0.000825521
0.000824726
0.000823929
0.000823171
0.000822413
0.000821691
0.00082097
0.000820283
0.000819599
0.000818946
0.000818298
0.000817678
0.000817063
0.000816478
0.000815894
0.000815343
0.000814788
0.000814271
0.000813743
0.00081326
0.00081276
0.000812307
0.000811837
0.000811412
0.000810973
0.000810573
0.000810165
0.00080979
0.000809411
0.000809061
0.00080871
0.000808384
0.00080806
0.000807759
0.000807461
0.000807182
0.000806912
0.000806654
0.000806413
0.000806174
0.00080596
0.000805739
0.000805541
0.000805338
0.000805139
0.00080495
0.000804727
0.000804538
0.00080427
0.000804066
0.000803739
0.000803507
0.000803124
0.000802875
0.000802462
0.000802231
0.000801841
0.000801687
0.000801393
0.000801384
0.000801262
0.000801444
0.000801547
0.00080193
0.000802271
0.000802824
0.000803363
0.000804014
0.000804664
0.000805324
0.000805973
0.000806548
0.000807089
0.000807497
0.000807852
0.000808032
0.000808162
0.000808088
0.000807984
0.000807672
0.000807343
0.000806844
0.000806322
0.000805705
0.000805035
0.00080437
0.000803614
0.000802963
0.000802181
0.000801603
0.000800835
0.000800386
0.000799656
0.000799381
0.000798707
0.000798618
0.000798029
0.000798107
0.00079764
0.00079785
0.000797541
0.000797856
0.000797734
0.000798145
0.000798223
0.00079872
0.000799016
0.000799569
0.00080009
0.000800677
0.000801411
0.000802027
0.000802956
0.000803609
0.000804705
0.000805423
0.000806623
0.000807448
0.000808699
0.000809632
0.000810876
0.000811999
0.000813073
0.000814487
0.000815311
0.00081686
0.000817632
0.000818953
0.00081938
0.000819927
0.000818976
0.000817905
0.00081848
0.000821009
0.00082563
0.000832145
0.00084033
0.000850952
0.00086363
0.000878673
0.000898
0.000917429
0.000937478
0.000958171
0.00097928
0.00100102
0.00102219
0.00104307
0.00106211
0.00107975
0.00109457
0.00110734
0.00111676
0.00112444
0.00112851
0.001132
0.00113176
0.00113241
0.00112922
0.00112867
0.00112347
0.00112355
0.0011171
0.00111858
0.00111299
0.0011145
0.00111215
0.0011139
0.00111144
0.00111876
0.00111224
0.00111959
0.00113227
0.00113063
0.0011322
0.00113516
0.000851365
0.000850015
0.000848681
0.000847388
0.000846105
0.000844865
0.00084363
0.000842444
0.000841255
0.000840121
0.000838976
0.000837892
0.000836792
0.000835756
0.0008347
0.000833709
0.000832697
0.00083175
0.000830781
0.000829877
0.000828951
0.000828088
0.000827202
0.000826381
0.000825533
0.000824754
0.000823942
0.000823203
0.000822426
0.000821728
0.000820985
0.000820324
0.000819615
0.00081899
0.000818316
0.000817725
0.000817084
0.000816527
0.000815918
0.000815393
0.000814816
0.000814322
0.000813776
0.000813311
0.000812797
0.00081236
0.000811877
0.000811466
0.000811015
0.000810628
0.000810209
0.000809846
0.000809456
0.000809117
0.000808755
0.00080844
0.000808106
0.000807812
0.000807509
0.000807233
0.000806963
0.000806701
0.000806467
0.00080622
0.000806016
0.000805787
0.000805599
0.000805393
0.000805195
0.000805016
0.000804777
0.000804617
0.000804309
0.000804149
0.000803754
0.000803576
0.00080309
0.000802884
0.000802324
0.000802103
0.000801507
0.000801303
0.000800722
0.000800572
0.000800063
0.000799995
0.000799607
0.000799625
0.000799375
0.000799454
0.000799319
0.000799407
0.000799334
0.00079939
0.000799307
0.000799285
0.000799122
0.000798993
0.000798712
0.000798466
0.000798065
0.000797712
0.000797217
0.000796794
0.000796248
0.000795819
0.000795263
0.000794896
0.000794372
0.000794122
0.000793671
0.000793568
0.000793229
0.000793293
0.000793088
0.000793338
0.000793267
0.000793718
0.000793776
0.000794415
0.000794604
0.000795376
0.00079571
0.000796543
0.000797034
0.000797871
0.000798515
0.000799333
0.00080012
0.000800912
0.000801835
0.000802592
0.000803641
0.000804378
0.000805517
0.000806292
0.000807494
0.000808361
0.000809646
0.000810634
0.000812013
0.00081314
0.000814581
0.000815845
0.000817241
0.000818685
0.000819895
0.000821487
0.000822506
0.000824049
0.000825055
0.000826447
0.000827134
0.000827877
0.000827553
0.000826383
0.000825402
0.000827798
0.000832086
0.000838529
0.000847035
0.000858372
0.000870889
0.000888332
0.000905201
0.00092541
0.00094456
0.000965765
0.000986065
0.00100843
0.00102898
0.0010505
0.00106881
0.00108722
0.0011011
0.00111465
0.00112322
0.00113126
0.001135
0.00113807
0.00113826
0.00113776
0.00113567
0.0011336
0.00112988
0.00112855
0.00112349
0.00112429
0.00111934
0.00112124
0.00111879
0.00112108
0.00111984
0.00112382
0.00112592
0.00111949
0.00113911
0.00114298
0.00114304
0.00114378
0.000851362
0.00085002
0.00084868
0.000847394
0.000846104
0.000844873
0.000843631
0.000842454
0.000841257
0.000840132
0.000838979
0.000837906
0.000836797
0.000835771
0.000834706
0.000833727
0.000832705
0.00083177
0.000830792
0.0008299
0.000828963
0.000828114
0.000827216
0.00082641
0.000825549
0.000824787
0.00082396
0.00082324
0.000822446
0.000821768
0.000821007
0.000820368
0.000819639
0.000819038
0.000818343
0.000817775
0.000817115
0.000816577
0.000815954
0.000815444
0.000814857
0.000814373
0.000813822
0.000813363
0.000812846
0.000812413
0.000811928
0.000811521
0.000811066
0.000810687
0.000810258
0.000809908
0.000809504
0.000809183
0.000808802
0.000808507
0.000808152
0.00080788
0.000807557
0.000807298
0.000807015
0.000806764
0.000806525
0.00080628
0.000806081
0.00080585
0.000805671
0.000805471
0.000805282
0.000805128
0.000804891
0.000804787
0.000804471
0.000804403
0.000803988
0.000803929
0.000803406
0.00080333
0.000802702
0.000802592
0.000801873
0.000801725
0.00080094
0.000800757
0.00079994
0.000799723
0.000798901
0.000798635
0.00079782
0.000797481
0.000796657
0.000796218
0.000795339
0.000794769
0.00079377
0.000793077
0.000791927
0.000791144
0.000789849
0.000789011
0.000787639
0.000786788
0.000785451
0.000784631
0.000783441
0.000782705
0.000781739
0.000781155
0.000780446
0.000780087
0.000779633
0.000779557
0.000779338
0.000779579
0.000779573
0.000780132
0.000780314
0.000781159
0.000781506
0.000782552
0.000783059
0.000784166
0.000784832
0.00078587
0.000786665
0.000787568
0.000788432
0.000789198
0.000790078
0.00079072
0.000791602
0.000792119
0.000793014
0.000793442
0.000794339
0.000794808
0.000795695
0.000796348
0.000797324
0.000798212
0.00079939
0.000800542
0.000801899
0.000803305
0.000804705
0.000806341
0.000807587
0.000809257
0.000810344
0.000811965
0.000812746
0.000814102
0.000813839
0.000814822
0.000814285
0.00081627
0.000819166
0.000825007
0.000831505
0.000841004
0.00085199
0.00086651
0.000882237
0.000900597
0.000918499
0.00093842
0.000957153
0.000978581
0.000998483
0.00102044
0.00103999
0.00106079
0.00107788
0.00109554
0.00110834
0.00112118
0.00112898
0.00113627
0.00113954
0.00114192
0.00114163
0.00114092
0.00113807
0.00113657
0.00113193
0.0011317
0.00112632
0.00112775
0.00112391
0.0011253
0.00112528
0.00112571
0.00112844
0.0011288
0.00113325
0.00113025
0.0011454
0.00114864
0.00115135
0.00114648
0.000851362
0.000850021
0.000848682
0.000847396
0.000846108
0.000844876
0.000843637
0.000842457
0.000841266
0.000840136
0.000838992
0.00083791
0.000836812
0.000835776
0.000834726
0.000833732
0.00083273
0.000831776
0.000830821
0.000829907
0.000828997
0.000828122
0.000827254
0.000826421
0.00082559
0.000824801
0.000824003
0.000823259
0.000822491
0.000821792
0.000821052
0.000820397
0.000819686
0.000819072
0.000818391
0.000817814
0.000817165
0.00081662
0.000816006
0.00081549
0.000814911
0.000814422
0.000813877
0.000813416
0.000812902
0.00081247
0.000811983
0.000811584
0.000811119
0.000810754
0.00081031
0.00080998
0.000809554
0.000809258
0.000808851
0.000808586
0.000808202
0.00080796
0.000807608
0.00080738
0.000807068
0.000806847
0.00080658
0.000806365
0.000806139
0.000805943
0.00080574
0.000805583
0.000805381
0.000805281
0.000805057
0.000805025
0.000804763
0.000804791
0.000804483
0.000804551
0.00080419
0.000804274
0.000803849
0.000803923
0.000803424
0.000803456
0.000802871
0.000802824
0.000802138
0.00080197
0.000801162
0.000800827
0.000799859
0.000799316
0.000798142
0.000797359
0.000795928
0.000794902
0.000793186
0.000791933
0.000789932
0.000788493
0.000786276
0.000784707
0.000782408
0.000780766
0.000778536
0.000776877
0.00077485
0.000773247
0.00077151
0.000770064
0.000768651
0.000767467
0.00076639
0.000765547
0.000764814
0.000764344
0.000763959
0.000763848
0.000763786
0.000763992
0.00076419
0.000764631
0.000765019
0.000765565
0.000766092
0.000766622
0.000767247
0.000767696
0.000768391
0.000768735
0.000769484
0.000769739
0.000770515
0.000770755
0.000771509
0.000771858
0.000772542
0.000773153
0.000773779
0.000774724
0.000775449
0.000776653
0.000777641
0.000779046
0.00078031
0.000781798
0.000783333
0.000784711
0.00078621
0.000787477
0.000788543
0.000789577
0.000789624
0.000789767
0.000788735
0.00079013
0.000792315
0.000797186
0.000803907
0.000812364
0.000823191
0.000836215
0.000851621
0.000869989
0.000888249
0.000907559
0.000927042
0.000947891
0.000967942
0.000989542
0.00100925
0.00103062
0.00104892
0.00106871
0.00108428
0.00110083
0.00111249
0.00112428
0.0011315
0.00113793
0.00114088
0.00114284
0.00114208
0.00114166
0.0011381
0.00113742
0.0011325
0.00113262
0.00112865
0.00112892
0.00112826
0.00112789
0.00113035
0.00113081
0.00113344
0.00113569
0.00113688
0.00114183
0.00116106
0.00116995
0.00117043
0.00116892
0.000851367
0.000850017
0.000848688
0.000847393
0.000846116
0.000844874
0.000843647
0.000842457
0.000841278
0.000840138
0.000839007
0.000837914
0.000836831
0.000835782
0.000834748
0.000833741
0.000832755
0.000831788
0.000830849
0.000829921
0.000829028
0.00082814
0.000827288
0.000826443
0.000825627
0.000824827
0.000824042
0.000823289
0.000822533
0.000821825
0.000821097
0.000820435
0.000819734
0.000819113
0.000818441
0.000817859
0.000817217
0.00081667
0.000816059
0.000815544
0.000814966
0.00081448
0.000813934
0.000813477
0.000812961
0.000812533
0.000812046
0.000811647
0.000811187
0.000810817
0.000810384
0.000810042
0.000809634
0.000809321
0.000808937
0.00080865
0.000808292
0.000808029
0.000807699
0.000807455
0.000807156
0.000806932
0.000806661
0.000806462
0.000806214
0.000806052
0.000805817
0.000805706
0.000805478
0.000805427
0.000805209
0.000805218
0.000805015
0.000805073
0.00080489
0.000804981
0.000804813
0.000804911
0.00080474
0.000804808
0.000804603
0.000804589
0.000804308
0.000804151
0.000803738
0.000803371
0.000802759
0.000802121
0.000801242
0.000800284
0.000799074
0.00079777
0.000796187
0.000794542
0.000792571
0.000790626
0.0007883
0.000786106
0.000783501
0.000781105
0.000778335
0.00077579
0.000772986
0.000770359
0.000767632
0.00076502
0.000762451
0.000759973
0.000757621
0.000755392
0.000753323
0.000751424
0.00074971
0.000748172
0.000746861
0.000745681
0.000744749
0.0007439
0.000743252
0.000742674
0.000742209
0.000741805
0.000741466
0.000741127
0.000740913
0.000740571
0.000740505
0.000740167
0.000740265
0.000740005
0.000740267
0.000740189
0.000740591
0.000740809
0.000741309
0.000741906
0.000742504
0.00074345
0.000744242
0.000745387
0.000746455
0.000747671
0.000748958
0.000750173
0.000751491
0.000752661
0.000753669
0.000754676
0.000754885
0.000755236
0.000754364
0.000753931
0.000754836
0.000757599
0.000762763
0.000770679
0.000781282
0.000793617
0.000809047
0.000826981
0.000847935
0.000867318
0.000887843
0.000908115
0.000929082
0.000950297
0.000970923
0.000992358
0.00101201
0.00103277
0.00105075
0.00106964
0.00108493
0.00110054
0.00111204
0.00112309
0.00113028
0.00113623
0.00113935
0.00114095
0.00114068
0.00113988
0.00113713
0.00113605
0.00113232
0.00113184
0.00112942
0.00112917
0.00112955
0.00112987
0.00113179
0.00113427
0.00113496
0.00114066
0.00113852
0.00114735
0.00116388
0.00116588
0.00117354
0.0011802
0.00085137
0.000850014
0.000848694
0.000847392
0.000846124
0.000844875
0.000843657
0.000842459
0.000841291
0.000840143
0.000839022
0.000837921
0.000836848
0.000835793
0.000834767
0.000833755
0.000832776
0.000831806
0.000830872
0.000829946
0.000829051
0.000828171
0.000827311
0.00082648
0.000825651
0.00082487
0.000824068
0.000823337
0.000822561
0.000821878
0.000821129
0.00082049
0.000819769
0.000819172
0.00081848
0.000817921
0.000817259
0.000816736
0.000816103
0.000815615
0.00081501
0.000814558
0.000813978
0.000813562
0.000813004
0.000812625
0.000812088
0.000811746
0.000811229
0.000810922
0.000810427
0.000810151
0.00080968
0.000809432
0.000808988
0.000808763
0.000808349
0.000808143
0.00080776
0.000807573
0.000807218
0.000807053
0.000806722
0.000806588
0.000806273
0.00080618
0.000805877
0.000805834
0.000805545
0.000805553
0.000805291
0.000805345
0.000805119
0.000805214
0.000805026
0.000805156
0.000804992
0.000805139
0.000804981
0.000805106
0.000804929
0.000804965
0.00080474
0.000804612
0.000804303
0.000803941
0.0008035
0.000802859
0.000802227
0.000801287
0.000800402
0.000799169
0.000797981
0.000796472
0.000794955
0.000793189
0.000791355
0.000789347
0.000787241
0.000784992
0.000782682
0.000780201
0.000777759
0.000775087
0.000772568
0.000769793
0.000767243
0.000764483
0.00076197
0.000759337
0.000756965
0.000754538
0.000752429
0.000750245
0.000748484
0.00074656
0.000745146
0.000743487
0.000742333
0.000740916
0.000739903
0.000738666
0.000737697
0.000736566
0.000735626
0.000734558
0.000733703
0.00073272
0.000732031
0.000731212
0.00073077
0.000730211
0.000730034
0.000729826
0.000729878
0.000730058
0.000730271
0.000730799
0.000731119
0.000731858
0.000732253
0.000733078
0.000733474
0.000734272
0.000734626
0.000735147
0.000735542
0.000735546
0.000735492
0.000734634
0.000733721
0.000733033
0.000734573
0.00073863
0.000745928
0.000755027
0.000768344
0.000782724
0.00080122
0.000820112
0.000843769
0.000865675
0.000888821
0.000910219
0.000932289
0.000953367
0.000974198
0.000994689
0.00101404
0.0010335
0.00105091
0.00106858
0.00108316
0.00109793
0.0011087
0.00111941
0.00112598
0.00113205
0.00113482
0.00113679
0.00113664
0.00113614
0.00113409
0.00113297
0.00113036
0.00112984
0.00112787
0.00112899
0.00112754
0.00113149
0.00112979
0.00113597
0.00113436
0.00114085
0.0011391
0.00114482
0.0011399
0.00115775
0.00115783
0.00116021
0.000851373
0.000850014
0.000848698
0.000847393
0.00084613
0.000844878
0.000843666
0.000842464
0.000841302
0.000840149
0.000839037
0.00083793
0.000836866
0.000835805
0.000834788
0.000833771
0.0008328
0.000831827
0.000830897
0.000829972
0.000829078
0.000828203
0.000827339
0.000826519
0.000825679
0.000824915
0.000824098
0.000823388
0.000822593
0.000821934
0.000821165
0.00082055
0.00081981
0.000819235
0.000818526
0.000817988
0.000817309
0.000816807
0.000816157
0.000815691
0.000815067
0.000814639
0.000814035
0.00081365
0.000813061
0.000812722
0.000812144
0.000811851
0.000811282
0.000811036
0.000810478
0.000810272
0.00080973
0.000809559
0.000809037
0.000808893
0.000808399
0.000808275
0.000807812
0.000807705
0.000807273
0.000807185
0.000806778
0.000806719
0.000806331
0.00080631
0.000805937
0.00080596
0.000805608
0.000805677
0.000805355
0.000805472
0.000805189
0.000805356
0.000805112
0.000805328
0.00080511
0.000805356
0.00080515
0.000805386
0.000805192
0.000805365
0.000805191
0.000805231
0.000805073
0.000804925
0.000804765
0.000804408
0.00080421
0.000803657
0.000803379
0.000802661
0.000802266
0.00080141
0.000800874
0.000799887
0.000799188