/*--------------------------------*- C++ -*----------------------------------*\
  =========                 |
  \\      /  F ield         | OpenFOAM: The Open Source CFD Toolbox
   \\    /   O peration     | Website:  https://openfoam.org
    \\  /    A nd           | Version:  8
     \\/     M anipulation  |
\*---------------------------------------------------------------------------*/
FoamFile
{
    version     2.0;
    format      ascii;
    class       volScalarField;
    location    "100";
    object      p;
}
// * * * * * * * * * * * * * * * * * * * * * * * * * * * * * * * * * * * * * //

dimensions      [0 2 -2 0 0 0 0];

internalField   nonuniform List<scalar> 
65000
(
48.0142
48.005
47.9828
47.9475
47.9004
47.8421
47.7724
47.6911
47.5984
47.4945
47.3794
47.2533
47.1163
46.9686
46.8102
46.6412
46.462
46.2725
46.0732
45.864
45.645
45.4164
45.1785
44.9314
44.6754
44.4106
44.137
43.8548
43.5642
43.2653
42.9582
42.6432
42.3203
41.9899
41.6518
41.3062
40.9533
40.593
40.2255
39.8509
39.4693
39.0808
38.6855
38.2834
37.8747
37.4593
37.0373
36.6087
36.1735
35.7318
35.2837
34.8291
34.3681
33.9006
33.4268
32.9466
32.4599
31.9669
31.4674
30.9615
30.4491
29.9302
29.4047
28.8727
28.3341
27.7889
27.237
26.6783
26.1129
25.5407
24.9615
24.3754
23.7823
23.1821
22.5748
21.9601
21.3382
20.7088
20.072
19.4276
18.7755
18.1156
17.4479
16.7722
16.0884
15.3965
14.6962
13.9876
13.2704
12.5446
11.81
11.0664
10.3139
9.55221
8.7812
8.00074
7.2107
6.41091
5.60125
4.78154
3.95163
3.11135
2.26056
1.39906
0.526701
-0.35671
-1.25135
-2.1574
-3.07504
-4.00449
-4.94593
-5.89956
-6.86559
-7.84423
-8.83571
-9.84023
-10.858
-11.8893
-12.9344
-13.9934
-15.0667
-16.1544
-17.2569
-18.3744
-19.5072
-20.6555
-21.8196
-22.9999
-24.1966
-25.4099
-26.6403
-27.8881
-29.1535
-30.4369
-31.7385
-33.0589
-34.3982
-35.757
-37.1355
-38.5341
-39.9532
-41.3933
-42.8546
-44.3377
-45.8429
-47.3706
-48.9213
-50.4954
-52.0933
-53.7155
-55.3623
-57.0342
-58.7317
-60.4552
-62.2051
-63.982
-65.7862
-67.6183
-69.4787
-71.3679
-73.2862
-75.2341
-77.2119
-79.2201
-81.259
-83.329
-85.4302
-87.5629
-89.7273
-91.9234
-94.1512
-96.4107
-98.7015
-101.023
-103.376
-105.758
-108.169
-110.607
-113.071
-115.559
-118.07
-120.599
-123.145
-125.703
-128.27
-130.841
-133.41
-135.971
-138.519
-141.046
-143.545
-146.006
-148.423
-150.785
-153.085
-155.313
-157.461
-159.521
-161.487
-163.354
48.0268
48.0175
47.9952
47.9598
47.9125
47.8541
47.7841
47.7027
47.6098
47.5057
47.3903
47.264
47.1267
46.9787
46.82
46.6508
46.4713
46.2816
46.0819
45.8724
45.6532
45.4244
45.1861
44.9388
44.6825
44.4174
44.1436
43.8611
43.5703
43.2711
42.9638
42.6485
42.3255
41.9948
41.6565
41.3108
40.9576
40.5972
40.2295
39.8547
39.473
39.0844
38.6889
38.2867
37.8778
37.4623
37.0402
36.6115
36.1762
35.7345
35.2862
34.8315
34.3704
33.9029
33.429
32.9487
32.462
31.9689
31.4694
30.9634
30.451
29.932
29.4065
28.8745
28.3359
27.7906
27.2386
26.68
26.1145
25.5423
24.9631
24.377
23.7839
23.1837
22.5763
21.9617
21.3397
20.7104
20.0735
19.4291
18.777
18.1171
17.4494
16.7737
16.0899
15.3979
14.6977
13.989
13.2719
12.546
11.8114
11.0679
10.3154
9.55368
8.78266
8.00221
7.21216
6.41237
5.6027
4.78298
3.95306
3.11279
2.26198
1.40048
0.528104
-0.355316
-1.24996
-2.15602
-3.07368
-4.00313
-4.94458
-5.89822
-6.86426
-7.84291
-8.83439
-9.83891
-10.8567
-11.888
-12.9331
-13.9921
-15.0654
-16.1531
-17.2556
-18.373
-19.5058
-20.6541
-21.8182
-22.9985
-24.1951
-25.4085
-26.6389
-27.8866
-29.152
-30.4353
-31.737
-33.0573
-34.3967
-35.7554
-37.1339
-38.5324
-39.9516
-41.3916
-42.8529
-44.3359
-45.8411
-47.3688
-48.9195
-50.4936
-52.0915
-53.7136
-55.3604
-57.0323
-58.7298
-60.4533
-62.2032
-63.98
-65.7842
-67.6163
-69.4767
-71.3658
-73.2841
-75.232
-77.2099
-79.2181
-81.2571
-83.3271
-85.4284
-87.5612
-89.7257
-91.922
-94.15
-96.4096
-98.7007
-101.023
-103.375
-105.758
-108.169
-110.608
-113.072
-115.561
-118.072
-120.602
-123.149
-125.708
-128.276
-130.847
-133.418
-135.981
-138.53
-141.058
-143.558
-146.021
-148.439
-150.802
-153.103
-155.332
-157.482
-159.543
-161.51
-163.376
48.0522
48.0427
48.0201
47.9844
47.9368
47.878
47.8077
47.7259
47.6326
47.528
47.4122
47.2853
47.1475
46.999
46.8398
46.67
46.4899
46.2997
46.0995
45.8894
45.6696
45.4402
45.2014
44.9535
44.6967
44.431
44.1567
43.8738
43.5824
43.2827
42.9749
42.6593
42.3358
42.0047
41.666
41.3199
40.9663
40.6055
40.2375
39.8624
39.4804
39.0914
38.6957
38.2933
37.8841
37.4684
37.046
36.6171
36.1816
35.7397
35.2913
34.8364
34.3751
33.9075
33.4334
32.953
32.4662
31.973
31.4733
30.9673
30.4547
29.9357
29.4101
28.878
28.3393
27.794
27.242
26.6833
26.1178
25.5455
24.9663
24.3801
23.787
23.1867
22.5793
21.9647
21.3427
20.7133
20.0765
19.432
18.7799
18.12
17.4523
16.7766
16.0928
15.4008
14.7006
13.9919
13.2748
12.5489
11.8143
11.0708
10.3183
9.55659
8.78559
8.00515
7.21511
6.41534
5.60569
4.78599
3.95609
3.11584
2.26505
1.40357
0.531225
-0.35217
-1.24679
-2.15282
-3.07046
-3.99988
-4.9413
-5.89491
-6.86092
-7.83955
-8.83099
-9.83548
-10.8532
-11.8845
-12.9295
-13.9885
-15.0617
-16.1494
-17.2519
-18.3693
-19.502
-20.6503
-21.8144
-22.9946
-24.1912
-25.4045
-26.6348
-27.8825
-29.1478
-30.4311
-31.7327
-33.053
-34.3923
-35.751
-37.1294
-38.5279
-39.947
-41.3869
-42.8482
-44.3312
-45.8363
-47.364
-48.9146
-50.4887
-52.0865
-53.7086
-55.3554
-57.0273
-58.7247
-60.4482
-62.1981
-63.9749
-65.7792
-67.6112
-69.4716
-71.3608
-73.2791
-75.2271
-77.205
-79.2134
-81.2525
-83.3227
-85.4242
-87.5573
-89.7221
-91.9187
-94.1471
-96.4072
-98.6987
-101.021
-103.375
-105.758
-108.17
-110.609
-113.075
-115.565
-118.077
-120.609
-123.157
-125.718
-128.287
-130.861
-133.434
-135.999
-138.551
-141.082
-143.585
-146.051
-148.471
-150.838
-153.141
-155.373
-157.524
-159.587
-161.554
-163.421
48.0903
48.0804
48.0574
48.0213
47.9733
47.914
47.8432
47.7607
47.6668
47.5615
47.445
47.3173
47.1788
47.0295
46.8694
46.6988
46.5179
46.3268
46.1257
45.9148
45.6941
45.4639
45.2243
44.9756
44.7179
44.4515
44.1763
43.8927
43.6005
43.3002
42.9917
42.6753
42.3512
42.0195
41.6802
41.3335
40.9794
40.618
40.2495
39.874
39.4914
39.1021
38.7059
38.3031
37.8935
37.4774
37.0547
36.6255
36.1897
35.7475
35.2988
34.8437
34.3822
33.9143
33.44
32.9594
32.4724
31.979
31.4793
30.973
30.4604
29.9412
29.4155
28.8833
28.3445
27.7991
27.247
26.6882
26.1226
25.5503
24.971
24.3848
23.7916
23.1913
22.5839
21.9692
21.3472
20.7178
20.0809
19.4364
18.7843
18.1244
17.4567
16.7809
16.0972
15.4052
14.705
13.9963
13.2791
12.5533
11.8187
11.0753
10.3228
9.56108
8.79011
8.0097
7.21971
6.41998
5.61037
4.79073
3.96089
3.12069
2.26996
1.40855
0.53626
-0.34707
-1.24163
-2.14759
-3.06516
-3.99452
-4.93587
-5.88941
-6.85535
-7.8339
-8.82528
-9.8297
-10.8474
-11.8786
-12.9235
-13.9825
-15.0556
-16.1432
-17.2456
-18.363
-19.4956
-20.6438
-21.8078
-22.9879
-24.1845
-25.3977
-26.628
-27.8756
-29.1408
-30.4241
-31.7256
-33.0458
-34.385
-35.7436
-37.122
-38.5204
-39.9394
-41.3793
-42.8405
-44.3235
-45.8285
-47.3561
-48.9067
-50.4807
-52.0785
-53.7006
-55.3473
-57.0192
-58.7166
-60.44
-62.19
-63.9668
-65.7711
-67.6032
-69.4637
-71.3529
-73.2714
-75.2195
-77.1976
-79.2061
-81.2455
-83.3159
-85.4178
-87.5513
-89.7165
-91.9136
-94.1425
-96.4033
-98.6956
-101.019
-103.373
-105.757
-108.171
-110.612
-113.079
-115.571
-118.085
-120.619
-123.169
-125.733
-128.305
-130.882
-133.458
-136.028
-138.583
-141.118
-143.625
-146.095
-148.52
-150.891
-153.198
-155.433
-157.587
-159.652
-161.621
-163.489
48.1411
48.1309
48.1073
48.0706
48.0221
47.9621
47.8905
47.8073
47.7124
47.6062
47.4887
47.3601
47.2205
47.0701
46.909
46.7373
46.5552
46.3629
46.1607
45.9487
45.7269
45.4955
45.2548
45.0049
44.7462
44.4787
44.2026
43.9178
43.6247
43.3234
43.014
42.6967
42.3718
42.0392
41.6991
41.3516
40.9968
40.6347
40.2655
39.8893
39.5062
39.1162
38.7195
38.3161
37.9061
37.4895
37.0663
36.6367
36.2005
35.7579
35.3088
34.8534
34.3916
33.9234
33.4489
32.968
32.4807
31.9871
31.4871
30.9807
30.4679
29.9485
29.4227
28.8903
28.3514
27.8058
27.2536
26.6947
26.1291
25.5566
24.9773
24.3911
23.7978
23.1975
22.59
21.9752
21.3532
20.7238
20.0869
19.4424
18.7902
18.1303
17.4625
16.7868
16.103
15.4111
14.7109
14.0022
13.2851
12.5593
11.8247
11.0813
10.3288
9.56716
8.79623
8.01587
7.22593
6.42627
5.61672
4.79714
3.96737
3.12725
2.2766
1.41526
0.543056
-0.34019
-1.23466
-2.14054
-3.05802
-3.98729
-4.92855
-5.88201
-6.84786
-7.82633
-8.81762
-9.82195
-10.8396
-11.8707
-12.9155
-13.9744
-15.0474
-16.135
-17.2373
-18.3545
-19.4871
-20.6352
-21.7991
-22.9792
-24.1757
-25.3888
-26.619
-27.8665
-29.1317
-30.4149
-31.7163
-33.0365
-34.3756
-35.7342
-37.1124
-38.5108
-39.9298
-41.3696
-42.8307
-44.3136
-45.8186
-47.3461
-48.8967
-50.4706
-52.0684
-53.6904
-55.3371
-57.009
-58.7064
-60.4298
-62.1798
-63.9566
-65.761
-67.5931
-69.4537
-71.343
-73.2615
-75.2097
-77.188
-79.1968
-81.2364
-83.3072
-85.4095
-87.5434
-89.7092
-91.9069
-94.1366
-96.3981
-98.6914
-101.016
-103.372
-105.757
-108.172
-110.615
-113.084
-115.578
-118.095
-120.632
-123.186
-125.753
-128.329
-130.911
-133.491
-136.066
-138.627
-141.167
-143.68
-146.155
-148.586
-150.962
-153.274
-155.514
-157.671
-159.74
-161.711
-163.58
48.2049
48.1941
48.1698
48.1325
48.0832
48.0224
47.9498
47.8655
47.7696
47.6623
47.5436
47.4136
47.2727
47.121
46.9585
46.7854
46.6019
46.4082
46.2045
45.991
45.7678
45.535
45.2929
45.0417
44.7816
44.5127
44.2353
43.9493
43.6549
43.3524
43.0418
42.7235
42.3974
42.0638
41.7227
41.3742
41.0184
40.6555
40.2855
39.9084
39.5245
39.1338
38.7364
38.3324
37.9217
37.5045
37.0808
36.6506
36.2139
35.7709
35.3214
34.8655
34.4033
33.9347
33.4599
32.9787
32.4911
31.9972
31.497
30.9903
30.4772
29.9577
29.4316
28.8991
28.36
27.8143
27.262
26.7029
26.1372
25.5646
24.9852
24.3989
23.8055
23.2051
22.5976
21.9828
21.3607
20.7312
20.0943
19.4498
18.7976
18.1377
17.4699
16.7942
16.1104
15.4185
14.7183
14.0096
13.2925
12.5667
11.8322
11.0888
10.3364
9.57479
8.80392
8.02361
7.23373
6.43413
5.62465
4.80514
3.97544
3.13539
2.28483
1.42357
0.551454
-0.331703
-1.22608
-2.13187
-3.04926
-3.97844
-4.9196
-5.87296
-6.83872
-7.81709
-8.80829
-9.81253
-10.83
-11.8611
-12.9058
-13.9646
-15.0375
-16.125
-17.2272
-18.3444
-19.4768
-20.6249
-21.7887
-22.9687
-24.1651
-25.3781
-26.6082
-27.8557
-29.1207
-30.4038
-31.7052
-33.0252
-34.3643
-35.7227
-37.1009
-38.4992
-39.9181
-41.3578
-42.8189
-44.3016
-45.8066
-47.3341
-48.8845
-50.4584
-52.0561
-53.6781
-55.3248
-56.9966
-58.694
-60.4174
-62.1673
-63.9442
-65.7485
-67.5807
-69.4413
-71.3307
-73.2493
-75.1977
-77.1762
-79.1852
-81.2251
-83.2963
-85.399
-87.5335
-89.6999
-91.8984
-94.129
-96.3916
-98.6861
-101.012
-103.369
-105.757
-108.173
-110.619
-113.091
-115.588
-118.108
-120.648
-123.206
-125.778
-128.359
-130.946
-133.532
-136.113
-138.68
-141.228
-143.747
-146.23
-148.668
-151.051
-153.369
-155.615
-157.777
-159.85
-161.824
-163.694
48.2817
48.2702
48.2451
48.2069
48.1567
48.0949
48.0212
47.9357
47.8384
47.7296
47.6095
47.478
47.3355
47.1821
47.018
46.8431
46.6579
46.4625
46.2571
46.0419
45.8169
45.5824
45.3386
45.0857
44.824
44.5535
44.2745
43.987
43.6911
43.3872
43.0752
42.7555
42.4281
42.0932
41.7509
41.4013
41.0444
40.6804
40.3093
39.9313
39.5465
39.1549
38.7567
38.3518
37.9404
37.5225
37.0981
36.6673
36.23
35.7864
35.3364
34.88
34.4173
33.9483
33.473
32.9914
32.5035
32.0093
31.5087
31.0018
30.4884
29.9686
29.4424
28.9096
28.3703
27.8244
27.2719
26.7128
26.1469
25.5742
24.9947
24.4082
23.8148
23.2143
22.6067
21.9918
21.3697
20.7402
20.1032
19.4587
18.8065
18.1466
17.4788
16.8031
16.1193
15.4274
14.7272
14.0186
13.3015
12.5758
11.8413
11.0979
10.3455
9.584
8.81319
8.03294
7.24313
6.44359
5.63418
4.81475
3.98513
3.14516
2.29468
1.4335
0.561474
-0.321595
-1.21589
-2.12158
-3.03887
-3.96796
-4.90903
-5.8623
-6.82796
-7.80623
-8.79733
-9.80147
-10.8189
-11.8498
-12.8945
-13.9531
-15.026
-16.1134
-17.2154
-18.3325
-19.4649
-20.6128
-21.7766
-22.9564
-24.1527
-25.3657
-26.5957
-27.843
-29.108
-30.3909
-31.6922
-33.0121
-34.3511
-35.7094
-37.0875
-38.4857
-39.9044
-41.3441
-42.805
-44.2877
-45.7925
-47.3199
-48.8703
-50.4441
-52.0417
-53.6636
-55.3102
-56.982
-58.6793
-60.4027
-62.1525
-63.9294
-65.7337
-67.5659
-69.4265
-71.3159
-73.2347
-75.1832
-77.162
-79.1713
-81.2116
-83.2832
-85.3865
-87.5216
-89.6888
-91.8882
-94.1199
-96.3837
-98.6796
-101.007
-103.366
-105.756
-108.175
-110.623
-113.098
-115.599
-118.123
-120.667
-123.23
-125.807
-128.395
-130.988
-133.581
-136.169
-138.745
-141.301
-143.829
-146.32
-148.766
-151.158
-153.484
-155.736
-157.905
-159.982
-161.959
-163.832
48.3716
48.3594
48.3333
48.2941
48.2428
48.1798
48.1047
48.0177
47.9189
47.8085
47.6866
47.5533
47.4089
47.2536
47.0875
46.9106
46.7234
46.5259
46.3185
46.1012
45.8742
45.6377
45.3919
45.1371
44.8734
44.6011
44.3202
44.0309
43.7333
43.4276
43.114
42.7927
42.4638
42.1274
41.7837
41.4327
41.0746
40.7093
40.3371
39.958
39.5721
39.1794
38.7802
38.3745
37.9622
37.5435
37.1183
36.6867
36.2487
35.8044
35.3538
34.8968
34.4336
33.9641
33.4883
33.0063
32.518
32.0234
31.5224
31.0151
30.5015
29.9814
29.4549
28.9219
28.3823
27.8362
27.2836
26.7242
26.1582
25.5853
25.0057
24.4191
23.8256
23.225
22.6173
22.0024
21.3802
20.7507
20.1137
19.4691
18.8169
18.157
17.4892
16.8135
16.1297
15.4378
14.7377
14.0291
13.312
12.5864
11.8519
11.1086
10.3563
9.59484
8.82409
8.04393
7.25419
6.45473
5.64541
4.82606
3.99653
3.15665
2.30626
1.44518
0.573246
-0.309727
-1.20392
-2.10952
-3.02671
-3.9557
-4.89667
-5.84983
-6.81539
-7.79356
-8.78455
-9.78859
-10.8059
-11.8367
-12.8813
-13.9398
-15.0126
-16.0998
-17.2018
-18.3188
-19.451
-20.5988
-21.7624
-22.9422
-24.1383
-25.3512
-26.5811
-27.8282
-29.0931
-30.3759
-31.677
-32.9968
-34.3356
-35.6938
-37.0718
-38.4699
-39.8885
-41.328
-42.7888
-44.2714
-45.7761
-47.3034
-48.8537
-50.4273
-52.0249
-53.6467
-55.2932
-56.9649
-58.6621
-60.3854
-62.1353
-63.9121
-65.7164
-67.5487
-69.4094
-71.299
-73.2179
-75.1667
-77.1457
-79.1554
-81.1961
-83.2682
-85.3721
-87.508
-89.6761
-91.8765
-94.1093
-96.3746
-98.6721
-101.002
-103.363
-105.755
-108.177
-110.628
-113.106
-115.611
-118.14
-120.689
-123.258
-125.841
-128.436
-131.036
-133.638
-136.235
-138.82
-141.385
-143.923
-146.425
-148.882
-151.283
-153.618
-155.879
-158.054
-160.137
-162.118
-163.993
48.4748
48.4617
48.4345
48.3941
48.3417
48.2772
48.2006
48.1118
48.0112
47.8988
47.7749
47.6395
47.493
47.3354
47.167
46.9879
46.7983
46.5985
46.3887
46.169
45.9397
45.7009
45.4528
45.1957
44.9298
44.6553
44.3723
44.081
43.7814
43.4738
43.1583
42.8352
42.5045
42.1665
41.8212
41.4686
41.109
40.7423
40.3687
39.9883
39.6012
39.2074
38.8071
38.4002
37.987
37.5673
37.1412
36.7088
36.27
35.825
35.3736
34.916
34.4522
33.9821
33.5058
33.0232
32.5345
32.0394
31.538
31.0304
30.5163
29.9959
29.4691
28.9358
28.396
27.8497
27.2968
26.7373
26.171
25.598
25.0182
24.4315
23.8379
23.2372
22.6294
22.0145
21.3922
20.7626
20.1256
19.481
18.8288
18.1688
17.501
16.8253
16.1416
15.4497
14.7496
14.0411
13.3241
12.5984
11.8641
11.1208
10.3686
9.60719
8.83653
8.05645
7.26681
6.46745
5.65823
4.83898
4.00956
3.1698
2.31952
1.45855
0.586735
-0.29612
-1.19019
-2.09567
-3.01274
-3.94159
-4.88244
-5.83548
-6.80091
-7.77895
-8.76981
-9.77371
-10.7909
-11.8216
-12.866
-13.9244
-14.997
-16.0841
-17.1859
-18.3028
-19.4349
-20.5825
-21.746
-22.9255
-24.1215
-25.3342
-26.5639
-27.8109
-29.0756
-30.3582
-31.6592
-32.9788
-34.3175
-35.6755
-37.0533
-38.4512
-39.8696
-41.3089
-42.7696
-44.252
-45.7566
-47.2838
-48.8339
-50.4075
-52.0049
-53.6266
-55.273
-56.9446
-58.6418
-60.3651
-62.115
-63.8919
-65.6963
-67.5287
-69.3896
-71.2794
-73.1986
-75.1477
-77.1271
-79.1372
-81.1784
-83.2512
-85.3557
-87.4925
-89.6615
-91.8631
-94.0972
-96.364
-98.6633
-100.995
-103.358
-105.753
-108.178
-110.633
-113.115
-115.625
-118.158
-120.714
-123.289
-125.88
-128.482
-131.091
-133.702
-136.309
-138.905
-141.482
-144.031
-146.545
-149.013
-151.425
-153.772
-156.042
-158.226
-160.315
-162.301
-164.178
48.5915
48.5774
48.5489
48.5072
48.4533
48.3872
48.3088
48.2181
48.1154
48.0009
47.8746
47.7368
47.5878
47.4277
47.2567
47.0749
46.8826
46.6801
46.4677
46.2454
46.0134
45.7719
45.5212
45.2616
44.9932
44.7163
44.4309
44.1372
43.8354
43.5255
43.208
42.8828
42.5502
42.2102
41.8631
41.5088
41.1475
40.7792
40.4041
40.0223
39.6338
39.2387
38.8371
38.4291
38.0147
37.594
37.1669
36.7336
36.2939
35.848
35.3959
34.9375
34.473
34.0023
33.5254
33.0422
32.5529
32.0574
31.5555
31.0474
30.533
30.0122
29.4851
28.9515
28.4114
27.8648
27.3117
26.7519
26.1855
25.6123
25.0323
24.4455
23.8517
23.2509
22.6431
22.028
21.4057
20.776
20.1389
19.4943
18.842
18.1821
17.5143
16.8386
16.1549
15.463
14.7629
14.0544
13.3375
12.6119
11.8776
11.1344
10.3822
9.62095
8.85038
8.07039
7.28085
6.48161
5.6725
4.85338
4.02408
3.18444
2.3343
1.47347
0.601792
-0.280919
-1.17484
-2.08017
-2.99708
-3.92578
-4.86647
-5.81934
-6.78461
-7.76248
-8.75318
-9.75691
-10.7739
-11.8044
-12.8487
-13.9069
-14.9793
-16.0662
-17.1679
-18.2845
-19.4164
-20.5639
-21.7272
-22.9065
-24.1023
-25.3148
-26.5443
-27.7911
-29.0556
-30.338
-31.6388
-32.9582
-34.2967
-35.6545
-37.0321
-38.4298
-39.8481
-41.2872
-42.7477
-44.23
-45.7344
-47.2613
-48.8113
-50.3847
-51.982
-53.6035
-55.2499
-56.9214
-58.6186
-60.3419
-62.0918
-63.8688
-65.6733
-67.5059
-69.3669
-71.257
-73.1765
-75.126
-77.1058
-79.1164
-81.1582
-83.2316
-85.337
-87.4746
-89.6448
-91.8476
-94.0832
-96.3517
-98.6529
-100.987
-103.353
-105.751
-108.179
-110.638
-113.125
-115.639
-118.179
-120.741
-123.323
-125.922
-128.533
-131.152
-133.774
-136.392
-139
-141.59
-144.153
-146.68
-149.161
-151.587
-153.945
-156.227
-158.42
-160.517
-162.508
-164.388
48.7219
48.7067
48.6767
48.6336
48.5781
48.5102
48.4297
48.3368
48.2317
48.1147
47.9858
47.8453
47.6935
47.5305
47.3565
47.1718
46.9765
46.771
46.5555
46.3302
46.0952
45.8508
45.5972
45.3347
45.0635
44.7838
44.4958
44.1995
43.8951
43.5829
43.263
42.9355
42.6007
42.2587
41.9095
41.5533
41.1901
40.8201
40.4433
40.0598
39.6698
39.2733
38.8703
38.461
38.0454
37.6235
37.1953
36.7609
36.3203
35.8735
35.4205
34.9613
34.496
34.0246
33.547
33.0632
32.5733
32.0772
31.5749
31.0663
30.5515
30.0303
29.5028
28.9688
28.4284
27.8816
27.3281
26.7681
26.2015
25.6281
25.048
24.461
23.8671
23.2662
22.6582
22.043
21.4206
20.7909
20.1537
19.5091
18.8568
18.1968
17.5291
16.8534
16.1696
15.4778
14.7777
14.0693
13.3524
12.6269
11.8926
11.1495
10.3974
9.63624
8.86576
8.08589
7.29646
6.49733
5.68834
4.86935
4.04018
3.20069
2.35069
1.49002
0.618494
-0.264053
-1.15781
-2.06296
-2.9797
-3.90822
-4.84872
-5.80141
-6.76649
-7.74417
-8.73466
-9.73819
-10.755
-11.7853
-12.8293
-13.8873
-14.9596
-16.0463
-17.1477
-18.2641
-19.3958
-20.543
-21.7061
-22.8852
-24.0808
-25.2931
-26.5223
-27.7689
-29.0332
-30.3154
-31.6159
-32.9352
-34.2734
-35.631
-37.0084
-38.4059
-39.8239
-41.2629
-42.7231
-44.2051
-45.7093
-47.2361
-48.7859
-50.3591
-51.9562
-53.5777
-55.2239
-56.8953
-58.5925
-60.3158
-62.0657
-63.8428
-65.6474
-67.4802
-69.3415
-71.2318
-73.1516
-75.1015
-77.0817
-79.0929
-81.1354
-83.2095
-85.3157
-87.4544
-89.6257
-91.8299
-94.0672
-96.3375
-98.6409
-100.977
-103.346
-105.747
-108.18
-110.643
-113.135
-115.655
-118.201
-120.77
-123.361
-125.968
-128.589
-131.219
-133.853
-136.484
-139.105
-141.709
-144.287
-146.83
-149.326
-151.766
-154.139
-156.433
-158.638
-160.743
-162.74
-164.623
48.8664
48.8499
48.8183
48.7734
48.7161
48.6461
48.5634
48.468
48.3603
48.2404
48.1086
47.9651
47.8101
47.6439
47.4666
47.2785
47.0799
46.871
46.6522
46.4235
46.1852
45.9375
45.6807
45.415
45.1407
44.858
44.567
44.2679
43.9607
43.6458
43.3232
42.9933
42.6561
42.3117
41.9603
41.602
41.2368
40.8648
40.4862
40.101
39.7093
39.3111
38.9067
38.496
38.079
37.6558
37.2264
36.7909
36.3492
35.9014
35.4474
34.9874
34.5212
34.049
33.5707
33.0863
32.5957
32.099
31.5961
31.0871
30.5717
30.0501
29.5221
28.9878
28.4471
27.8999
27.3462
26.786
26.2191
25.6455
25.0652
24.478
23.8839
23.2829
22.6748
22.0595
21.437
20.8073
20.1701
19.5253
18.8731
18.2131
17.5453
16.8696
16.1859
15.4941
14.794
14.0856
13.3688
12.6433
11.9091
11.1661
10.4141
9.65297
8.88258
8.1028
7.31347
6.51444
5.70557
4.8867
4.05766
3.21829
2.36842
1.50789
0.636519
-0.245875
-1.13948
-2.04446
-2.96103
-3.88938
-4.8297
-5.7822
-6.74709
-7.72458
-8.71487
-9.7182
-10.7348
-11.7649
-12.8087
-13.8665
-14.9385
-16.025
-17.1262
-18.2424
-19.3738
-20.5208
-21.6836
-22.8625
-24.0578
-25.2699
-26.4989
-27.7452
-29.0092
-30.2912
-31.5915
-32.9105
-34.2485
-35.6058
-36.983
-38.3802
-39.798
-41.2367
-42.6967
-44.1785
-45.6825
-47.209
-48.7586
-50.3316
-51.9286
-53.5498
-55.1959
-56.8673
-58.5643
-60.2876
-62.0375
-63.8146
-65.6193
-67.4522
-69.3136
-71.2042
-73.1243
-75.0745
-77.0553
-79.0669
-81.1101
-83.185
-85.2921
-87.4318
-89.6044
-91.8101
-94.0491
-96.3215
-98.6273
-100.966
-103.338
-105.743
-108.18
-110.648
-113.145
-115.672
-118.224
-120.802
-123.401
-126.018
-128.65
-131.292
-133.939
-136.584
-139.221
-141.841
-144.435
-146.994
-149.508
-151.965
-154.353
-156.661
-158.878
-160.993
-162.997
-164.884
49.025
49.0072
48.9737
48.927
48.8677
48.7954
48.7101
48.6119
48.5012
48.3783
48.2432
48.0963
47.9378
47.768
47.5871
47.3953
47.1929
46.9803
46.7577
46.5253
46.2834
46.032
45.7717
45.5025
45.2248
44.9388
44.6445
44.3422
44.032
43.7141
43.3887
43.056
42.7162
42.3693
42.0155
41.6549
41.2874
40.9134
40.5327
40.1456
39.752
39.3522
38.9461
38.5338
38.1154
37.6908
37.2601
36.8234
36.3805
35.9316
35.4766
35.0156
34.5486
34.0755
33.5964
33.1112
32.62
32.1227
31.6192
31.1096
30.5937
30.0716
29.5432
29.0085
28.4674
27.9199
27.3659
26.8053
26.2382
25.6644
25.0839
24.4965
23.9023
23.3011
22.6929
22.0775
21.4549
20.8251
20.1878
19.5431
18.8907
18.2307
17.5629
16.8873
16.2036
15.5118
14.8118
14.1034
13.3866
12.6612
11.9271
11.1841
10.4322
9.67112
8.90082
8.12113
7.33189
6.53297
5.7242
4.90544
4.07652
3.23727
2.38754
1.52714
0.655905
-0.226345
-1.1198
-2.02463
-2.94104
-3.86921
-4.80936
-5.76169
-6.72639
-7.70369
-8.69379
-9.69692
-10.7133
-11.7432
-12.7868
-13.8444
-14.9162
-16.0024
-17.1034
-18.2193
-19.3505
-20.4973
-21.6598
-22.8385
-24.0335
-25.2453
-26.4741
-27.7202
-28.9839
-30.2656
-31.5656
-32.8843
-34.222
-35.5791
-36.956
-38.353
-39.7705
-41.2089
-42.6687
-44.1503
-45.654
-47.1803
-48.7296
-50.3025
-51.8992
-53.5202
-55.1661
-56.8373
-58.5342
-60.2574
-62.0072
-63.7842
-65.5889
-67.4218
-69.2834
-71.1741
-73.0944
-75.045
-77.0261
-79.0383
-81.0821
-83.1578
-85.2659
-87.4068
-89.5808
-91.7881
-94.0289
-96.3035
-98.6118
-100.954
-103.329
-105.738
-108.179
-110.652
-113.156
-115.689
-118.249
-120.835
-123.444
-126.072
-128.716
-131.371
-134.032
-136.693
-139.346
-141.983
-144.596
-147.174
-149.707
-152.182
-154.588
-156.912
-159.142
-161.268
-163.279
-165.171
49.1983
49.1789
49.1434
49.0946
49.0331
48.9582
48.8701
48.7688
48.6548
48.5284
48.3897
48.239
48.0766
47.9028
47.7179
47.522
47.3155
47.0988
46.8721
46.6357
46.3897
46.1344
45.8701
45.5971
45.3157
45.026
44.7282
44.4224
44.1089
43.7878
43.4594
43.1237
42.781
42.4314
42.0749
41.7118
41.342
40.9656
40.5828
40.1936
39.7981
39.3964
38.9885
38.5746
38.1546
37.7285
37.2964
36.8583
36.4142
35.9641
35.5081
35.046
34.578
34.1041
33.6241
33.1382
32.6462
32.1482
31.6441
31.1338
30.6174
30.0948
29.566
29.0308
28.4893
27.9415
27.3871
26.8263
26.2589
25.6848
25.1041
24.5165
23.9221
23.3208
22.7124
22.097
21.4743
20.8444
20.2071
19.5623
18.9099
18.2499
17.5821
16.9064
16.2228
15.531
14.8311
14.1228
13.406
12.6807
11.9466
11.2038
10.4519
9.69099
8.9208
8.14122
7.35211
6.55332
5.74469
4.92607
4.09729
3.2582
2.40862
1.54838
0.677317
-0.204759
-1.09803
-2.00268
-2.9189
-3.84689
-4.78684
-5.73896
-6.70346
-7.68054
-8.67043
-9.67333
-10.6895
-11.7191
-12.7625
-13.8199
-14.8914
-15.9774
-17.0781
-18.1938
-19.3248
-20.4713
-21.6335
-22.8119
-24.0067
-25.2182
-26.4467
-27.6926
-28.956
-30.2374
-31.5372
-32.8556
-34.193
-35.5499
-36.9264
-38.3232
-39.7404
-41.1786
-42.6381
-44.1194
-45.6228
-47.1489
-48.698
-50.2705
-51.867
-53.4878
-55.1335
-56.8045
-58.5012
-60.2242
-61.9739
-63.7509
-65.5556
-67.3885
-69.2502
-71.1411
-73.0617
-75.0126
-76.9942
-79.007
-81.0514
-83.128
-85.2372
-87.3793
-89.5547
-91.7637
-94.0066
-96.2835
-98.5946
-100.94
-103.319
-105.732
-108.178
-110.656
-113.166
-115.706
-118.275
-120.87
-123.489
-126.129
-128.786
-131.455
-134.132
-136.809
-139.481
-142.137
-144.77
-147.369
-149.923
-152.418
-154.844
-157.185
-159.431
-161.569
-163.589
-165.485
49.3866
49.3654
49.3277
49.2766
49.2126
49.1349
49.0436
48.9389
48.8213
48.691
48.5483
48.3934
48.2267
48.0486
47.8592
47.6588
47.4478
47.2266
46.9954
46.7545
46.5041
46.2444
45.9759
45.6988
45.4133
45.1196
44.818
44.5085
44.1914
43.8668
43.535
43.1962
42.8504
42.4978
42.1386
41.7727
41.4003
41.0215
40.6363
40.2449
39.8473
39.4436
39.0339
38.6182
38.1965
37.7688
37.3352
36.8957
36.4503
35.999
35.5417
35.0786
34.6095
34.1346
33.6538
33.167
32.6742
32.1755
31.6707
31.1598
30.6428
30.1197
29.5904
29.0548
28.5129
27.9646
27.4099
26.8488
26.2811
25.7067
25.1258
24.538
23.9435
23.342
22.7335
22.1179
21.4952
20.8652
20.2278
19.583
18.9306
18.2706
17.6028
16.9272
16.2435
15.5518
14.8519
14.1437
13.427
12.7018
11.9679
11.2251
10.4734
9.71258
8.94253
8.16309
7.37413
6.57549
5.76702
4.94857
4.11996
3.28105
2.43165
1.5716
0.700727
-0.181152
-1.07422
-1.97867
-2.89468
-3.82245
-4.76218
-5.71408
-6.67834
-7.65519
-8.64484
-9.64751
-10.6634
-11.6928
-12.736
-13.793
-14.8643
-15.9501
-17.0505
-18.166
-19.2967
-20.4429
-21.6049
-22.783
-23.9775
-25.1888
-26.417
-27.6625
-28.9257
-30.2068
-31.5063
-32.8244
-34.1616
-35.5181
-36.8944
-38.2908
-39.7077
-41.1456
-42.6049
-44.0858
-45.589
-47.1148
-48.6636
-50.2359
-51.8321
-53.4527
-55.0982
-56.769
-58.4656
-60.1884
-61.938
-63.7149
-65.5196
-67.3526
-69.2144
-71.1055
-73.0264
-74.9776
-76.9597
-78.9731
-81.0182
-83.0957
-85.2059
-87.3493
-89.5263
-91.7371
-93.9821
-96.2615
-98.5754
-100.924
-103.307
-105.724
-108.176
-110.66
-113.177
-115.724
-118.302
-120.907
-123.537
-126.189
-128.86
-131.544
-134.238
-136.933
-139.625
-142.302
-144.958
-147.579
-150.156
-152.674
-155.121
-157.482
-159.745
-161.897
-163.926
-165.827
49.5901
49.5671
49.5269
49.4733
49.4065
49.3258
49.2309
49.1225
49.0008
48.8663
48.7191
48.5597
48.3883
48.2053
48.0111
47.8058
47.5898
47.3636
47.1276
46.8818
46.6266
46.3622
46.0891
45.8074
45.5175
45.2196
44.9138
44.6003
44.2794
43.9511
43.6157
43.2733
42.9243
42.5685
42.2063
41.8375
41.4624
41.081
40.6933
40.2995
39.8997
39.4939
39.0822
38.6645
38.241
37.8117
37.3765
36.9355
36.4887
36.036
35.5775
35.1132
34.6431
34.1671
33.6853
33.1976
32.7041
32.2045
31.699
31.1875
30.6699
30.1462
29.6164
29.0803
28.5379
27.9893
27.4342
26.8727
26.3048
25.7302
25.149
24.561
23.9662
23.3646
22.756
22.1403
21.5175
20.8874
20.25
19.6051
18.9527
18.2927
17.6249
16.9493
16.2657
15.5741
14.8743
14.1661
13.4495
12.7244
11.9906
11.2479
10.4963
9.73564
8.96572
8.18643
7.39762
6.59914
5.79083
4.97254
4.14411
3.30538
2.45617
1.59631
0.725631
-0.156048
-1.04891
-1.95314
-2.86894
-3.79648
-4.73599
-5.68765
-6.65168
-7.62829
-8.61769
-9.62011
-10.6358
-11.6649
-12.7078
-13.7646
-14.8356
-15.9211
-17.0212
-18.1364
-19.2668
-20.4127
-21.5745
-22.7523
-23.9465
-25.1574
-26.3853
-27.6306
-28.8934
-30.1742
-31.4734
-32.7912
-34.128
-35.4842
-36.8602
-38.2563
-39.673
-41.1105
-42.5694
-44.0501
-45.553
-47.0785
-48.627
-50.199
-51.795
-53.4154
-55.0606
-56.7312
-58.4276
-60.1503
-61.8997
-63.6765
-65.4812
-67.3142
-69.176
-71.0672
-72.9884
-74.9399
-76.9224
-78.9364
-80.9823
-83.0607
-85.172
-87.3168
-89.4953
-91.708
-93.9552
-96.2372
-98.5542
-100.906
-103.293
-105.715
-108.172
-110.663
-113.186
-115.742
-118.329
-120.944
-123.586
-126.251
-128.937
-131.638
-134.349
-137.065
-139.778
-142.478
-145.158
-147.804
-150.406
-152.949
-155.42
-157.804
-160.085
-162.253
-164.292
-166.199
49.8096
49.7845
49.7416
49.6852
49.6154
49.5311
49.4324
49.3198
49.1937
49.0546
48.9025
48.738
48.5615
48.3732
48.1736
47.9629
47.7416
47.51
47.2686
47.0176
46.7572
46.4877
46.2095
45.923
45.6284
45.3258
45.0156
44.6978
44.3727
44.0404
43.7011
43.3551
43.0025
42.6434
42.2779
41.9061
41.5281
41.1439
40.7536
40.3573
39.9551
39.547
39.1332
38.7135
38.2882
37.857
37.4202
36.9776
36.5292
36.0752
35.6154
35.1499
34.6786
34.2016
33.7188
33.2302
32.7357
32.2354
31.7291
31.2169
30.6987
30.1744
29.644
29.1074
28.5646
28.0155
27.4601
26.8982
26.3299
25.7551
25.1736
24.5854
23.9905
23.3887
22.7799
22.1641
21.5412
20.911
20.2735
19.6286
18.9762
18.3162
17.6484
16.9728
16.2893
15.5977
14.8979
14.1898
13.4733
12.7483
12.0146
11.272
10.5206
9.76
8.99022
8.21107
7.42241
6.62409
5.81594
4.99783
4.16957
3.33102
2.482
1.62234
0.751858
-0.129615
-1.02226
-1.92628
-2.84184
-3.76916
-4.70843
-5.65985
-6.62363
-7.59998
-8.58912
-9.59127
-10.6067
-11.6355
-12.6781
-13.7346
-14.8053
-15.8905
-16.9904
-18.1052
-19.2353
-20.3809
-21.5423
-22.7198
-23.9137
-25.1243
-26.3518
-27.5967
-28.8592
-30.1397
-31.4385
-32.756
-34.0925
-35.4484
-36.824
-38.2198
-39.6361
-41.0733
-42.5319
-44.0122
-45.5148
-47.04
-48.5882
-50.1599
-51.7556
-53.3757
-55.0206
-56.691
-58.3871
-60.1096
-61.8589
-63.6356
-65.4401
-67.2731
-69.135
-71.0263
-72.9477
-74.8996
-76.8825
-78.8971
-80.9438
-83.0231
-85.1356
-87.2817
-89.4619
-91.6765
-93.926
-96.2107
-98.5309
-100.887
-103.278
-105.705
-108.167
-110.664
-113.195
-115.76
-118.356
-120.983
-123.637
-126.316
-129.018
-131.736
-134.467
-137.204
-139.94
-142.665
-145.371
-148.044
-150.674
-153.244
-155.742
-158.149
-160.452
-162.637
-164.688
-166.601
50.0453
50.018
49.9721
49.9127
49.8395
49.7515
49.6485
49.5313
49.4003
49.256
49.0986
48.9286
48.7463
48.5523
48.3469
48.1303
47.9031
47.6657
47.4185
47.1617
46.8957
46.6208
46.3372
46.0454
45.7457
45.4383
45.1232
44.8008
44.4713
44.1347
43.7914
43.4414
43.0851
42.7224
42.3535
41.9784
41.5973
41.2101
40.8171
40.4181
40.0134
39.603
39.1869
38.7652
38.3378
37.9048
37.4661
37.0219
36.572
36.1165
35.6553
35.1885
34.716
34.2379
33.754
33.2644
32.7691
32.2679
31.7609
31.2479
30.729
30.2041
29.6731
29.136
28.5928
28.0432
27.4874
26.9252
26.3566
25.7814
25.1997
24.6113
24.0162
23.4142
22.8052
22.1893
21.5663
20.936
20.2985
19.6535
19.0011
18.3411
17.6733
16.9977
16.3142
15.6227
14.923
14.215
13.4985
12.7736
12.04
11.2975
10.5462
9.78577
9.01613
8.23714
7.44864
6.65048
5.84252
5.02458
4.19652
3.35816
2.50934
1.64989
0.779624