/*--------------------------------*- C++ -*----------------------------------*\
  =========                 |
  \\      /  F ield         | OpenFOAM: The Open Source CFD Toolbox
   \\    /   O peration     | Website:  https://openfoam.org
    \\  /    A nd           | Version:  8
     \\/     M anipulation  |
\*---------------------------------------------------------------------------*/
FoamFile
{
    version     2.0;
    format      ascii;
    class       surfaceScalarField;
    location    "100";
    object      phi;
}
// * * * * * * * * * * * * * * * * * * * * * * * * * * * * * * * * * * * * * //

dimensions      [0 3 -1 0 0 0 0];

internalField   nonuniform List<scalar> 
129250
(
0.1053
0.000299807
-6.80576e-10
0.105013
0.000287518
-1.01712e-08
0.104737
0.000275376
-9.07239e-09
0.104474
0.000263397
-8.14431e-09
0.104222
0.000251587
-6.96095e-09
0.103982
0.000239958
-7.29475e-09
0.103754
0.000228532
-6.29963e-09
0.103537
0.000217325
-4.9662e-09
0.10333
0.000206349
-3.71207e-09
0.103135
0.000195616
-2.53575e-09
0.102949
0.000185138
-1.44177e-09
0.102774
0.000174925
-3.66061e-10
0.10261
0.000164985
5.87723e-10
0.102454
0.000155326
1.51235e-09
0.102308
0.000145954
2.32841e-09
0.102171
0.000136875
3.08339e-09
0.102043
0.000128091
3.6897e-09
0.101924
0.000119606
4.24188e-09
0.101812
0.00011142
4.71538e-09
0.101709
0.000103534
5.1732e-09
0.101613
9.59469e-05
5.57685e-09
0.101524
8.86571e-05
5.96707e-09
0.101442
8.16615e-05
6.38618e-09
0.101367
7.49563e-05
6.83995e-09
0.101299
6.85373e-05
7.38132e-09
0.101237
6.23995e-05
7.88631e-09
0.10118
5.65374e-05
8.40428e-09
0.101129
5.09449e-05
8.828e-09
0.101083
4.56153e-05
9.33068e-09
0.101043
4.05416e-05
9.79469e-09
0.101007
3.57162e-05
1.03962e-08
0.100976
3.11316e-05
1.09539e-08
0.100949
2.678e-05
1.1685e-08
0.100926
2.26533e-05
1.2332e-08
0.100908
1.87436e-05
1.31128e-08
0.100893
1.50431e-05
1.36779e-08
0.100881
1.15436e-05
1.43866e-08
0.100873
8.23722e-06
1.48878e-08
0.100868
5.11574e-06
1.56781e-08
0.100866
2.17153e-06
1.62716e-08
0.100866
-6.03515e-07
1.7224e-08
0.100869
-3.21666e-06
1.79213e-08
0.100875
-5.67571e-06
1.90287e-08
0.100883
-7.98742e-06
1.98127e-08
0.100893
-1.01593e-05
2.10114e-08
0.100905
-1.21977e-05
2.1797e-08
0.100919
-1.41096e-05
2.30375e-08
0.100935
-1.59008e-05
2.38381e-08
0.100953
-1.75781e-05
2.51782e-08
0.100972
-1.91468e-05
2.60533e-08
0.100992
-2.06134e-05
2.75611e-08
0.101014
-2.19825e-05
2.86016e-08
0.101038
-2.32601e-05
3.03214e-08
0.101062
-2.44507e-05
3.15486e-08
0.101088
-2.55596e-05
3.34592e-08
0.101114
-2.65908e-05
3.48863e-08
0.101142
-2.75493e-05
3.69503e-08
0.10117
-2.84386e-05
3.85376e-08
0.101199
-2.92632e-05
4.07184e-08
0.101229
-3.00265e-05
4.25166e-08
0.10126
-3.07323e-05
4.49053e-08
0.101291
-3.13837e-05
4.69577e-08
0.101323
-3.19844e-05
4.96399e-08
0.101356
-3.2537e-05
5.20602e-08
0.101389
-3.30448e-05
5.5215e-08
0.101422
-3.35102e-05
5.81296e-08
0.101456
-3.39362e-05
6.19411e-08
0.10149
-3.4325e-05
6.55571e-08
0.101525
-3.46792e-05
7.03135e-08
0.10156
-3.50006e-05
7.48797e-08
0.101595
-3.52919e-05
8.08463e-08
0.101631
-3.55544e-05
8.65898e-08
0.101666
-3.57906e-05
9.39943e-08
0.101702
-3.60013e-05
1.00997e-07
0.101738
-3.61892e-05
1.09736e-07
0.101774
-3.63546e-05
1.17815e-07
0.101811
-3.65e-05
1.27433e-07
0.101847
-3.66254e-05
1.36033e-07
0.101884
-3.67332e-05
1.45625e-07
0.101921
-3.68232e-05
1.53887e-07
0.101957
-3.68977e-05
1.62269e-07
0.101994
-3.69563e-05
1.69057e-07
0.102031
-3.70012e-05
1.7491e-07
0.102068
-3.70319e-05
1.79118e-07
0.102105
-3.70506e-05
1.814e-07
0.102141
-3.70564e-05
1.82152e-07
0.102178
-3.70521e-05
1.80226e-07
0.102215
-3.70359e-05
1.77026e-07
0.102252
-3.7011e-05
1.70775e-07
0.102289
-3.69753e-05
1.63663e-07
0.102326
-3.69321e-05
1.534e-07
0.102362
-3.6879e-05
1.42782e-07
0.102399
-3.68194e-05
1.29124e-07
0.102436
-3.67509e-05
1.15709e-07
0.102472
-3.66762e-05
9.93773e-08
0.102509
-3.65937e-05
8.38972e-08
0.102545
-3.65053e-05
6.58523e-08
0.102582
-3.64103e-05
4.90894e-08
0.102618
-3.63097e-05
3.03807e-08
0.102654
-3.62035e-05
1.29829e-08
0.10269
-3.60925e-05
-5.16763e-09
0.102726
-3.59772e-05
-2.21371e-08
0.102762
-3.58581e-05
-3.84432e-08
0.102798
-3.57362e-05
-5.37782e-08
0.102833
-3.56113e-05
-6.7154e-08
0.102869
-3.54856e-05
-7.93279e-08
0.102904
-3.53576e-05
-8.89324e-08
0.10294
-3.52306e-05
-9.67296e-08
0.102975
-3.51017e-05
-1.02139e-07
0.10301
-3.49752e-05
-1.04827e-07
0.103045
-3.48474e-05
-1.05863e-07
0.10308
-3.47223e-05
-1.03542e-07
0.103114
-3.45965e-05
-1.00462e-07
0.103149
-3.4473e-05
-9.38838e-08
0.103183
-3.43493e-05
-8.70116e-08
0.103218
-3.42271e-05
-7.72633e-08
0.103252
-3.41046e-05
-6.7283e-08
0.103286
-3.39829e-05
-5.55333e-08
0.10332
-3.38598e-05
-4.34965e-08
0.103354
-3.37373e-05
-3.1213e-08
0.103387
-3.36123e-05
-1.83697e-08
0.103421
-3.34879e-05
-6.34343e-09
0.103454
-3.33595e-05
5.81434e-09
0.103487
-3.32314e-05
1.64961e-08
0.10352
-3.30986e-05
2.64824e-08
0.103553
-3.29656e-05
3.468e-08
0.103586
-3.28276e-05
4.16734e-08
0.103619
-3.26885e-05
4.63123e-08
0.103651
-3.25444e-05
4.9828e-08
0.103683
-3.23978e-05
5.04376e-08
0.103716
-3.22465e-05
5.04805e-08
0.103748
-3.20912e-05
4.73301e-08
0.103779
-3.19311e-05
4.42464e-08
0.103811
-3.17668e-05
3.88465e-08
0.103843
-3.15968e-05
3.32079e-08
0.103874
-3.14226e-05
2.63064e-08
0.103905
-3.12423e-05
1.80058e-08
0.103936
-3.10578e-05
9.21858e-09
0.103967
-3.08679e-05
-9.7559e-10
0.103998
-3.06738e-05
-1.14094e-08
0.104029
-3.04739e-05
-2.24484e-08
0.104059
-3.02685e-05
-3.52328e-08
0.104089
-3.00563e-05
-4.71487e-08
0.104119
-2.98391e-05
-6.05282e-08
0.104149
-2.96138e-05
-7.21005e-08
0.104178
-2.93806e-05
-8.4344e-08
0.104207
-2.91382e-05
-9.49324e-08
0.104236
-2.88823e-05
-1.04995e-07
0.104265
-2.86146e-05
-1.14012e-07
0.104293
-2.83288e-05
-1.20805e-07
0.104322
-2.80294e-05
-1.2447e-07
0.104349
-2.77057e-05
-1.2748e-07
0.104377
-2.73669e-05
-1.24356e-07
0.104404
-2.70038e-05
-1.16038e-07
0.104431
-2.66211e-05
-1.03175e-07
0.104457
-2.61944e-05
-9.8758e-08
0.104483
-2.57423e-05
-9.52864e-08
0.104508
-2.52393e-05
-1.09998e-07
0.104533
-2.46954e-05
-1.26235e-07
0.104557
-2.40988e-05
-1.40598e-07
0.104581
-2.34514e-05
-1.5913e-07
0.104604
-2.27212e-05
-1.81576e-07
0.104626
-2.19178e-05
-1.96027e-07
0.104647
-2.10267e-05
-2.09285e-07
0.104667
-2.00479e-05
-2.14936e-07
0.104687
-1.89567e-05
-2.27969e-07
0.104705
-1.77483e-05
-2.31689e-07
0.104721
-1.64095e-05
-2.31849e-07
0.104736
-1.49243e-05
-2.17925e-07
0.10475
-1.32818e-05
-1.94558e-07
0.104762
-1.14481e-05
-1.60033e-07
0.104771
-9.41016e-06
-1.14977e-07
0.104778
-7.11797e-06
-6.47728e-08
0.104783
-4.55165e-06
-6.73113e-09
0.104784
-1.6532e-06
5.22525e-08
0.104783
1.61296e-06
1.11239e-07
0.104777
5.30222e-06
1.6948e-07
0.104768
9.47524e-06
2.16569e-07
0.104753
1.41801e-05
2.58575e-07
0.104733
1.94997e-05
2.83681e-07
0.104708
2.54849e-05
2.91714e-07
0.104675
3.22234e-05
2.89417e-07
0.104635
3.97842e-05
2.59609e-07
0.104587
4.82478e-05
2.28162e-07
0.104529
5.77002e-05
1.70726e-07
0.10446
6.82136e-05
1.1949e-07
0.104381
7.98882e-05
3.74635e-08
0.104288
9.27597e-05
-1.86383e-09
0.104181
0.000106959
-1.04271e-07
0.104059
0.000122464
-1.26071e-07
0.103919
0.000139378
-1.9508e-07
0.103762
0.000157708
-2.43897e-07
0.103585
0.000177393
-2.60051e-07
0.103387
0.000198482
-2.95041e-07
0.103166
0.000220845
-3.1997e-07
0.102922
0.000244384
-3.13264e-07
0.102654
0.000268913
-2.70248e-07
0.102359
0.000294294
-2.25685e-07
0.10204
0.000320158
-1.90604e-07
0.000346886
-1.81418e-07
0.101693
0.1053
0.000599604
0.105013
0.000574996
0.104737
0.000550691
0.104474
0.000526715
0.104223
0.000503076
0.103983
0.000479805
0.103754
0.000456938
0.103537
0.000434509
0.103331
0.000412544
0.103135
0.000391068
0.102951
0.000370102
0.102776
0.000349667
0.102611
0.00032978
0.102456
0.000310457
0.10231
0.000291709
0.102173
0.000273548
0.102046
0.000255979
0.101926
0.000239008
0.101815
0.000222637
0.101712
0.000206867
0.101616
0.000191696
0.101527
0.00017712
0.101446
0.000163133
0.101371
0.000149728
0.101303
0.000136896
0.101241
0.000124627
0.101184
0.00011291
0.101133
0.000101732
0.101088
9.10805e-05
0.101048
8.0941e-05
0.101012
7.12983e-05
0.100981
6.21373e-05
0.100954
5.34421e-05
0.100932
4.51971e-05
0.100913
3.7386e-05
0.100898
2.99932e-05
0.100887
2.30024e-05
0.100879
1.63976e-05
0.100873
1.01627e-05
0.100871
4.28198e-06
0.100872
-1.26038e-06
0.100875
-6.47937e-06
0.100881
-1.13901e-05
0.100889
-1.60066e-05
0.100899
-2.03433e-05
0.100911
-2.44136e-05
0.100926
-2.82306e-05
0.100941
-3.18071e-05
0.100959
-3.51553e-05
0.100978
-3.82872e-05
0.100999
-4.12141e-05
0.101021
-4.39472e-05
0.101044
-4.64966e-05
0.101068
-4.88728e-05
0.101094
-5.10851e-05
0.10112
-5.31428e-05
0.101148
-5.50544e-05
0.101176
-5.68286e-05
0.101206
-5.84727e-05
0.101236
-5.99947e-05
0.101266
-6.14013e-05
0.101298
-6.26998e-05
0.101329
-6.38961e-05
0.101362
-6.49968e-05
0.101395
-6.60071e-05
0.101428
-6.69332e-05
0.101462
-6.77797e-05
0.101496
-6.8552e-05
0.101531
-6.92541e-05
0.101566
-6.98909e-05
0.101601
-7.04661e-05
0.101636
-7.0984e-05
0.101672
-7.14476e-05
0.101708
-7.18611e-05
0.101744
-7.22268e-05
0.10178
-7.25487e-05
0.101816
-7.28287e-05
0.101853
-7.30705e-05
0.101889
-7.32756e-05
0.101926
-7.34475e-05
0.101963
-7.35873e-05
0.102
-7.36983e-05
0.102036
-7.37817e-05
0.102073
-7.38399e-05
0.10211
-7.38746e-05
0.102147
-7.38869e-05
0.102184
-7.38796e-05
0.10222
-7.38522e-05
0.102257
-7.38082e-05
0.102294
-7.37458e-05
0.102331
-7.36694e-05
0.102367
-7.35758e-05
0.102404
-7.34701e-05
0.102441
-7.33481e-05
0.102477
-7.32152e-05
0.102514
-7.30671e-05
0.10255
-7.29088e-05
0.102586
-7.27366e-05
0.102623
-7.25549e-05
0.102659
-7.2361e-05
0.102695
-7.21581e-05
0.102731
-7.19454e-05
0.102767
-7.17246e-05
0.102802
-7.14965e-05
0.102838
-7.12614e-05
0.102874
-7.10218e-05
0.102909
-7.07766e-05
0.102944
-7.05291e-05
0.102979
-7.02778e-05
0.103015
-7.00253e-05
0.103049
-6.97709e-05
0.103084
-6.95157e-05
0.103119
-6.92603e-05
0.103153
-6.90037e-05
0.103188
-6.87476e-05
0.103222
-6.84904e-05
0.103256
-6.82328e-05
0.10329
-6.79747e-05
0.103324
-6.77142e-05
0.103358
-6.74539e-05
0.103391
-6.71892e-05
0.103425
-6.69252e-05
0.103458
-6.66549e-05
0.103491
-6.63848e-05
0.103524
-6.61081e-05
0.103557
-6.58305e-05
0.10359
-6.55464e-05
0.103622
-6.526e-05
0.103655
-6.49673e-05
0.103687
-6.46708e-05
0.103719
-6.43679e-05
0.103751
-6.40598e-05
0.103783
-6.37446e-05
0.103814
-6.34231e-05
0.103846
-6.30938e-05
0.103877
-6.27568e-05
0.103908
-6.24113e-05
0.10394
-6.20561e-05
0.10397
-6.16919e-05
0.104001
-6.13171e-05
0.104032
-6.09315e-05
0.104062
-6.05344e-05
0.104092
-6.01231e-05
0.104122
-5.96993e-05
0.104151
-5.92579e-05
0.104181
-5.87996e-05
0.10421
-5.83187e-05
0.104239
-5.78143e-05
0.104268
-5.72807e-05
0.104296
-5.67166e-05
0.104324
-5.61179e-05
0.104352
-5.54777e-05
0.104379
-5.47967e-05
0.104406
-5.40623e-05
0.104433
-5.32754e-05
0.104459
-5.24221e-05
0.104485
-5.15121e-05
0.10451
-5.05272e-05
0.104535
-4.94634e-05
0.104559
-4.82951e-05
0.104583
-4.70231e-05
0.104606
-4.55923e-05
0.104628
-4.40109e-05
0.104649
-4.22541e-05
0.104669
-4.03161e-05
0.104688
-3.81542e-05
0.104706
-3.57504e-05
0.104723
-3.30743e-05
0.104738
-3.00981e-05
0.104752
-2.67889e-05
0.104763
-2.30951e-05
0.104773
-1.89722e-05
0.10478
-1.43462e-05
0.104785
-9.15365e-06
0.104787
-3.30658e-06
0.104785
3.28315e-06
0.10478
1.07113e-05
0.10477
1.90941e-05
0.104756
2.85365e-05
0.104736
3.91801e-05
0.10471
5.11451e-05
0.104678
6.45937e-05
0.104638
7.96648e-05
0.10459
9.65361e-05
0.104532
0.000115359
0.104464
0.000136314
0.104384
0.00015956
0.104292
0.000185246
0.104185
0.000213531
0.104063
0.000244506
0.103924
0.000278274
0.103767
0.000314873
0.10359
0.000354264
0.103392
0.000396414
0.103172
0.000441151
0.102928
0.000488248
0.10266
0.000537361
0.102366
0.000588206
0.102046
0.000640054
0.00069358
0.101699
0.1053
0.000899381
0.105013
0.000862412
0.104738
0.000825903
0.104474
0.00078989
0.104223
0.000754386
0.103983
0.000719436
0.103755
0.000685096
0.103538
0.000651417
0.103332
0.000618437
0.103137
0.000586193
0.102953
0.000554718
0.102778
0.000524044
0.102614
0.000494195
0.102459
0.000465195
0.102314
0.000437063
0.102178
0.000409813
0.10205
0.000383455
0.101931
0.000357996
0.10182
0.000333441
0.101717
0.000309789
0.101622
0.000287039
0.101534
0.000265183
0.101453
0.000244214
0.101379
0.000224118
0.101311
0.000204884
0.101249
0.000186495
0.101193
0.000168935
0.101142
0.000152185
0.101097
0.000136226
0.101057
0.000121035
0.101022
0.00010659
0.100991
9.2868e-05
0.100965
7.98447e-05
0.100942
6.74965e-05
0.100924
5.57994e-05
0.100909
4.47294e-05
0.100898
3.42621e-05
0.10089
2.43736e-05
0.100885
1.50396e-05
0.100883
6.23641e-06
0.100884
-2.05954e-06
0.100887
-9.87111e-06
0.100893
-1.72206e-05
0.100901
-2.41297e-05
0.100911
-3.06193e-05
0.100924
-3.671e-05
0.100938
-4.24213e-05
0.100954
-4.77725e-05
0.100972
-5.27817e-05
0.100991
-5.74672e-05
0.101011
-6.18456e-05
0.101033
-6.59338e-05
0.101057
-6.9747e-05
0.101081
-7.33009e-05
0.101107
-7.66094e-05
0.101133
-7.96866e-05
0.101161
-8.2545e-05
0.101189
-8.51976e-05
0.101218
-8.76557e-05
0.101248
-8.99308e-05
0.101279
-9.20333e-05
0.10131
-9.39739e-05
0.101342
-9.57615e-05
0.101374
-9.74059e-05
0.101407
-9.89152e-05
0.10144
-0.000100298
0.101474
-0.000101562
0.101508
-0.000102714
0.101543
-0.000103762
0.101578
-0.000104711
0.101613
-0.000105568
0.101648
-0.000106339
0.101684
-0.000107028
0.10172
-0.000107643
0.101756
-0.000108185
0.101792
-0.000108663
0.101828
-0.000109077
0.101864
-0.000109434
0.101901
-0.000109737
0.101937
-0.00010999
0.101974
-0.000110195
0.102011
-0.000110359
0.102047
-0.000110481
0.102084
-0.000110567
0.102121
-0.000110617
0.102157
-0.000110636
0.102194
-0.000110624
0.102231
-0.000110586
0.102268
-0.000110521
0.102304
-0.000110431
0.102341
-0.000110319
0.102378
-0.000110184
0.102414
-0.000110029
0.102451
-0.000109853
0.102487
-0.000109659
0.102523
-0.000109444
0.10256
-0.000109213
0.102596
-0.000108963
0.102632
-0.000108698
0.102668
-0.000108416
0.102704
-0.00010812
0.10274
-0.000107809
0.102776
-0.000107487
0.102811
-0.000107152
0.102847
-0.000106808
0.102882
-0.000106454
0.102918
-0.000106094
0.102953
-0.000105725
0.102988
-0.000105354
0.103023
-0.000104974
0.103058
-0.000104595
0.103092
-0.000104209
0.103127
-0.000103824
0.103161
-0.000103434
0.103196
-0.000103045
0.10323
-0.000102651
0.103264
-0.000102259
0.103298
-0.000101862
0.103331
-0.000101465
0.103365
-0.000101065
0.103399
-0.000100662
0.103432
-0.000100256
0.103465
-9.98462e-05
0.103498
-9.9433e-05
0.103531
-9.90152e-05
0.103564
-9.85928e-05
0.103596
-9.81654e-05
0.103629
-9.7732e-05
0.103661
-9.72931e-05
0.103693
-9.68473e-05
0.103725
-9.63947e-05
0.103757
-9.59338e-05
0.103789
-9.54642e-05
0.10382
-9.49849e-05
0.103852
-9.44956e-05
0.103883
-9.39948e-05
0.103914
-9.34822e-05
0.103945
-9.29554e-05
0.103976
-9.24152e-05
0.104006
-9.18598e-05
0.104037
-9.12886e-05
0.104067
-9.07012e-05
0.104097
-9.00927e-05
0.104127
-8.94648e-05
0.104156
-8.88109e-05
0.104186
-8.81306e-05
0.104215
-8.7417e-05
0.104244
-8.66679e-05
0.104272
-8.58753e-05
0.1043
-8.50358e-05
0.104328
-8.41425e-05
0.104356
-8.31897e-05
0.104383
-8.21709e-05
0.10441
-8.10674e-05
0.104437
-7.98718e-05
0.104463
-7.85915e-05
0.104489
-7.72255e-05
0.104514
-7.57639e-05
0.104539
-7.41812e-05
0.104563
-7.24526e-05
0.104586
-7.05628e-05
0.104609
-6.84482e-05
0.104631
-6.60914e-05
0.104653
-6.34774e-05
0.104673
-6.0591e-05
0.104692
-5.73751e-05
0.10471
-5.37913e-05
0.104727
-4.97919e-05
0.104742
-4.53395e-05
0.104756
-4.0373e-05
0.104768
-3.48314e-05
0.104777
-2.86281e-05
0.104785
-2.16799e-05
0.104789
-1.38665e-05
0.104791
-5.08581e-06
0.10479
4.81559e-06
0.104784
1.59623e-05
0.104775
2.8533e-05
0.104761
4.26866e-05
0.104741
5.86217e-05
0.104716
7.65366e-05
0.104684
9.66551e-05
0.104644
0.000119206
0.104596
0.00014444
0.104539
0.000172605
0.104472
0.000203954
0.104392
0.000238753
0.1043
0.00027721
0.104194
0.000319578
0.104073
0.000365995
0.103935
0.000416626
0.103778
0.000471496
0.103602
0.000530626
0.103404
0.000593862
0.103184
0.000661023
0.102941
0.000731754
0.102673
0.00080555
0.102379
0.000881975
0.102059
0.000959913
0.00104032
0.101712
0.1053
0.00119912
0.105013
0.00114973
0.104738
0.00110096
0.104475
0.00105285
0.104224
0.00100542
0.103985
0.000958743
0.103757
0.000912882
0.10354
0.000867908
0.103335
0.000823873
0.10314
0.000780825
0.102956
0.000738811
0.102782
0.00069787
0.102618
0.000658037
0.102464
0.000619342
0.10232
0.000581811
0.102184
0.000545462
0.102057
0.000510309
0.101939
0.000476361
0.101829
0.000443622
0.101726
0.000412093
0.101631
0.00038177
0.101544
0.000352645
0.101464
0.000324705
0.10139
0.000297933
0.101322
0.000272312
0.101261
0.000247822
0.101205
0.000224438
0.101156
0.000202137
0.101111
0.000180892
0.101071
0.000160672
0.101036
0.000141447
0.101006
0.000123186
0.10098
0.000105858
0.100958
8.94294e-05
0.10094
7.38691e-05
0.100926
5.91447e-05
0.100915
4.52235e-05
0.100907
3.20734e-05
0.100902
1.96619e-05
0.100901
7.95745e-06
0.100902
-3.07162e-06
0.100905
-1.34558e-05
0.100911
-2.32249e-05
0.100919
-3.24079e-05
0.10093
-4.10327e-05
0.100942
-4.91267e-05
0.100957
-5.67159e-05
0.100973
-6.3826e-05
0.10099
-7.04814e-05
0.10101
-7.6706e-05
0.10103
-8.25223e-05
0.101052
-8.79526e-05
0.101076
-9.30176e-05
0.1011
-9.77375e-05
0.101125
-0.000102131
0.101152
-0.000106217
0.101179
-0.000110013
0.101208
-0.000113535
0.101237
-0.000116798
0.101267
-0.000119818
0.101297
-0.000122609
0.101329
-0.000125185
0.10136
-0.000127557
0.101393
-0.000129739
0.101426
-0.000131741
0.101459
-0.000133575
0.101493
-0.000135251
0.101527
-0.000136779
0.101561
-0.000138167
0.101596
-0.000139426
0.101631
-0.000140561
0.101666
-0.000141582
0.101701
-0.000142494
0.101737
-0.000143307
0.101773
-0.000144025
0.101809
-0.000144656
0.101845
-0.000145203
0.101881
-0.000145675
0.101918
-0.000146074
0.101954
-0.000146408
0.101991
-0.000146679
0.102027
-0.000146894
0.102064
-0.000147054
0.1021
-0.000147166
0.102137
-0.000147231
0.102173
-0.000147255
0.10221
-0.000147238
0.102247
-0.000147185
0.102283
-0.000147096
0.10232
-0.000146976
0.102356
-0.000146825
0.102393
-0.000146644
0.102429
-0.000146436
0.102466
-0.000146201
0.102502
-0.000145941
0.102538
-0.000145656
0.102574
-0.000145348
0.10261
-0.000145017
0.102646
-0.000144666
0.102682
-0.000144294
0.102718
-0.000143903
0.102754
-0.000143494
0.102789
-0.000143069
0.102825
-0.000142629
0.10286
-0.000142176
0.102895
-0.000141709
0.10293
-0.000141234
0.102965
-0.000140747
0.103
-0.000140256
0.103035
-0.000139753
0.10307
-0.000139249
0.103104
-0.000138735
0.103139
-0.000138222
0.103173
-0.0001377
0.103207
-0.000137179
0.103241
-0.000136651
0.103275
-0.000136124
0.103309
-0.000135591
0.103342
-0.000135057
0.103376
-0.000134519
0.103409
-0.000133978
0.103442
-0.000133433
0.103475
-0.000132884
0.103508
-0.000132331
0.103541
-0.000131772
0.103573
-0.000131207
0.103606
-0.000130637
0.103638
-0.00013006
0.10367
-0.000129475
0.103702
-0.000128882
0.103734
-0.000128281
0.103766
-0.000127669
0.103797
-0.000127046
0.103829
-0.00012641
0.10386
-0.000125762
0.103891
-0.000125099
0.103922
-0.000124421
0.103953
-0.000123725
0.103984
-0.000123012
0.104014
-0.000122279
0.104044
-0.000121526
0.104075
-0.00012075
0.104104
-0.000119947
0.104134
-0.000119116
0.104164
-0.000118252
0.104193
-0.000117352
0.104222
-0.000116408
0.10425
-0.000115416
0.104279
-0.000114368
0.104307
-0.000113256
0.104335
-0.000112069
0.104363
-0.000110807
0.10439
-0.000109451
0.104417
-0.000107985
0.104443
-0.000106396
0.104469
-0.000104705
0.104495
-0.000102895
0.10452
-0.000100961
0.104545
-9.88591e-05
0.104569
-9.65706e-05
0.104592
-9.40538e-05
0.104615
-9.12599e-05
0.104637
-8.81427e-05
0.104659
-8.46866e-05
0.104679
-8.08615e-05
0.104698
-7.66097e-05
0.104716
-7.18613e-05
0.104733
-6.65608e-05
0.104748
-6.06474e-05
0.104762
-5.40423e-05
0.104774
-4.66651e-05
0.104784
-3.83997e-05
0.104791
-2.91415e-05
0.104796
-1.87324e-05
0.104798
-7.03539e-06
0.104797
6.14252e-06
0.104792
2.09809e-05
0.104782
3.76965e-05
0.104769
5.65237e-05
0.10475
7.77028e-05
0.104725
0.000101523
0.104693
0.000128257
0.104654
0.00015824
0.104607
0.000191775
0.10455
0.000229238
0.104483
0.00027092
0.104405
0.00031723
0.104313
0.000368414
0.104208
0.000424829
0.104087
0.000486673
0.10395
0.000554152
0.103794
0.000627319
0.103619
0.000706218
0.103422
0.000790575
0.103203
0.000880246
0.10296
0.000974743
0.102692
0.0010734
0.102398
0.00117551
0.102079
0.00127962
0.00138713
0.101732
0.1053
0.00149882
0.105013
0.00143692
0.104738
0.0013758
0.104476
0.00131552
0.104225
0.00125609
0.103986
0.00119761
0.103759
0.00114017
0.103543
0.00108384
0.103338
0.00102869
0.103144
0.000974796
0.102961
0.0009222
0.102788
0.000870956
0.102624
0.000821109
0.102471
0.000772696
0.102327
0.000725747
0.102192
0.000680286
0.102066
0.00063633
0.101949
0.000593889
0.101839
0.000552969
0.101738
0.000513569
0.101644
0.000475683
0.101557
0.000439302
0.101478
0.000404407
0.101405
0.000370979
0.101338
0.000338994
0.101277
0.000308426
0.101223
0.000279245
0.101173
0.00025142
0.101129
0.000224916
0.10109
0.000199697
0.101056
0.000175722
0.101026
0.000152954
0.101001
0.000131351
0.100979
0.000110874
0.100962
9.14811e-05
0.100948
7.31329e-05
0.100937
5.57879e-05
0.10093
3.94057e-05
0.100925
2.39457e-05
0.100924
9.3681e-06
0.100925
-4.36673e-06
0.100929
-1.7297e-05
0.100935
-2.94601e-05
0.100944
-4.08921e-05
0.100955
-5.16283e-05
0.100967
-6.17026e-05
0.100982
-7.11479e-05
0.100998
-7.9996e-05
0.101016
-8.82775e-05
0.101035
-9.60222e-05
0.101056
-0.000103259
0.101078
-0.000110014
0.101101
-0.000116314
0.101125
-0.000122185
0.101151
-0.000127649
0.101177
-0.000132731
0.101205
-0.000137451
0.101233
-0.000141829
0.101262
-0.000145886
0.101292
-0.000149641
0.101323
-0.00015311
0.101354
-0.00015631
0.101385
-0.000159258
0.101418
-0.000161969
0.10145
-0.000164457
0.101483
-0.000166735
0.101517
-0.000168816
0.101551
-0.000170713
0.101585
-0.000172437
0.10162
-0.000173998
0.101655
-0.000175407
0.10169
-0.000176673
0.101725
-0.000177805
0.101761
-0.000178813
0.101796
-0.000179703
0.101832
-0.000180484
0.101868
-0.000181162
0.101904
-0.000181746
0.10194
-0.000182241
0.101977
-0.000182653
0.102013
-0.000182988
0.102049
-0.000183253
0.102086
-0.00018345
0.102122
-0.000183587
0.102158
-0.000183665
0.102195
-0.000183691
0.102231
-0.000183666
0.102268
-0.000183596
0.102304
-0.000183481
0.10234
-0.000183326
0.102377
-0.000183132
0.102413
-0.000182902
0.102449
-0.000182636
0.102485
-0.000182338
0.102521
-0.000182008
0.102557
-0.000181649
0.102593
-0.000181261
0.102629
-0.000180847
0.102665
-0.000180406
0.1027
-0.000179941
0.102736
-0.000179454
0.102771
-0.000178946
0.102807
-0.000178418
0.102842
-0.000177873
0.102877
-0.000177311
0.102912
-0.000176735
0.102947
-0.000176145
0.102982
-0.000175544
0.103017
-0.000174933
0.103051
-0.000174312
0.103086
-0.000173684
0.10312
-0.000173048
0.103154
-0.000172407
0.103188
-0.00017176
0.103222
-0.000171108
0.103256
-0.000170451
0.10329
-0.000169791
0.103323
-0.000169126
0.103356
-0.000168458
0.10339
-0.000167785
0.103423
-0.000167109
0.103456
-0.000166428
0.103489
-0.000165742
0.103521
-0.000165051
0.103554
-0.000164354
0.103586
-0.000163651
0.103619
-0.000162939
0.103651
-0.000162221
0.103683
-0.000161494
0.103715
-0.000160757
0.103746
-0.000160009
0.103778
-0.000159247
0.103809
-0.000158473
0.103841
-0.000157683
0.103872
-0.000156877
0.103903
-0.000156052
0.103933
-0.00015521
0.103964
-0.000154345
0.103995
-0.000153459
0.104025
-0.000152549
0.104055
-0.000151614
0.104085
-0.00015065
0.104115
-0.000149654
0.104144
-0.000148622
0.104174
-0.00014755
0.104203
-0.000146433
0.104231
-0.000145262
0.10426
-0.000144032
0.104288
-0.00014273
0.104316
-0.000141351
0.104344
-0.000139872
0.104372
-0.000138295
0.104399
-0.000136602
0.104426
-0.000134792
0.104452
-0.000132837
0.104478
-0.000130741
0.104504
-0.000128485
0.104529
-0.000126066
0.104553
-0.00012344
0.104577
-0.000120581
0.104601
-0.000117442
0.104623
-0.000113982
0.104645
-0.000110128
0.104667
-0.000105855
0.104687
-0.000101106
0.104706
-9.58329e-05
0.104724
-8.99388e-05
0.104741
-8.33686e-05
0.104756
-7.60209e-05
0.10477
-6.78147e-05
0.104782
-5.8628e-05
0.104792
-4.83403e-05
0.1048
-3.67971e-05
0.104805
-2.38349e-05
0.104807
-9.25098e-06
0.104806
7.15523e-06
0.104801
2.56439e-05
0.104793
4.64511e-05
0.104779
6.98971e-05
0.104761
9.62644e-05
0.104736
0.000125926
0.104705
0.000159217
0.104667
0.000196567
0.10462
0.000238342
0.104565
0.000285032
0.104499
0.000336997
0.104421
0.000394746
0.104331
0.000458619
0.104227
0.000529032
0.104107
0.000606285
0.103971
0.000690604
0.103816
0.000782089
0.103641
0.000880799
0.103445
0.000986395
0.103227
0.00109868
0.102985
0.00121706
0.102717
0.00134069
0.102424
0.00146869
0.102105
0.00159919
0.00173401
0.101758
0.1053
0.00179847
0.105013
0.00172394
0.104739
0.00165037
0.104476
0.00157781
0.104226
0.0015063
0.103988
0.00143593
0.103761
0.00136682
0.103546
0.00129906
0.103342
0.00123274
0.103149
0.00116793
0.102966
0.0011047
0.102794
0.00104311
0.102632
0.000983211
0.10248
0.000925049
0.102337
0.00086866
0.102203
0.000814071
0.102078
0.000761303
0.101962
0.000710366
0.101853
0.000661266
0.101753
0.000614003
0.10166
0.000568568
0.101574
0.000524948
0.101496
0.00048312
0.101424
0.00044306
0.101358
0.000404739
0.101298
0.000368124
0.101244
0.000333179
0.101196
0.000299864
0.101153
0.000268139
0.101114
0.000237956
0.101081
0.000209271
0.101052
0.000182033
0.101027
0.000156195
0.101006
0.000131708
0.100989
0.000108522
0.100975
8.6588e-05
0.100965
6.58571e-05
0.100959
4.62799e-05
0.100955
2.78077e-05
0.100954
1.03921e-05
0.100955
-6.01404e-06
0.100959
-2.14571e-05
0.100966
-3.5982e-05
0.100975
-4.96322e-05
0.100986
-6.24499e-05
0.100998
-7.4476e-05
0.101013
-8.57499e-05
0.101029
-9.63098e-05
0.101047
-0.000106193
0.101067
-0.000115434
0.101087
-0.000124067
0.101109
-0.000132126
0.101133
-0.000139641
0.101157
-0.000146643
0.101183
-0.000153161
0.101209
-0.00015922
0.101237
-0.000164848
0.101265
-0.000170068
0.101294
-0.000174905
0.101324
-0.000179379
0.101354
-0.000183514
0.101385
-0.000187328
0.101417
-0.000190841
0.101449
-0.00019407
0.101481
-0.000197033
0.101514
-0.000199746
0.101548
-0.000202225
0.101581
-0.000204483
0.101616
-0.000206534
0.10165
-0.000208392
0.101685
-0.000210068
0.10172
-0.000211574
0.101755
-0.00021292
0.10179
-0.000214118
0.101825
-0.000215175
0.101861
-0.000216103
0.101897
-0.000216908
0.101933
-0.000217601
0.101969
-0.000218187
0.102005
-0.000218676
0.102041
-0.000219072
0.102077
-0.000219385
0.102113
-0.000219616
0.102149
-0.000219776
0.102185
-0.000219864
0.102222
-0.000219891
0.102258
-0.000219855
0.102294
-0.000219765
0.10233
-0.000219621
0.102366
-0.000219429
0.102402
-0.000219189
0.102438
-0.000218907
0.102474
-0.000218581
0.10251
-0.000218217
0.102546
-0.000217815
0.102582
-0.000217379
0.102617
-0.000216908
0.102653
-0.000216408
0.102688
-0.000215876
0.102724
-0.000215318
0.102759
-0.000214733
0.102794
-0.000214125
0.102829
-0.000213494
0.102864
-0.000212844
0.102899
-0.000212174
0.102934
-0.000211489
0.102968
-0.000210787
0.103003
-0.000210072
0.103037
-0.000209344
0.103072
-0.000208607
0.103106
-0.000207859
0.10314
-0.000207103
0.103174
-0.000206338
0.103208
-0.000205568
0.103241
-0.000204789
0.103275
-0.000204006
0.103308
-0.000203216
0.103342
-0.000202423
0.103375
-0.000201623
0.103408
-0.00020082
0.103441
-0.00020001
0.103473
-0.000199196
0.103506
-0.000198375
0.103538
-0.000197549
0.103571
-0.000196715
0.103603
-0.000195874
0.103635
-0.000195024
0.103667
-0.000194165
0.103699
-0.000193295
0.10373
-0.000192414
0.103762
-0.00019152
0.103793
-0.00019061
0.103825
-0.000189686
0.103856
-0.000188742
0.103887
-0.000187781
0.103917
-0.000186798
0.103948
-0.000185792
0.103978
-0.000184763
0.104009
-0.000183707
0.104039
-0.000182622
0.104069
-0.000181508
0.104098
-0.000180358
0.104128
-0.000179173
0.104157
-0.000177943
0.104186
-0.000176667
0.104215
-0.000175335
0.104244
-0.00017394
0.104272
-0.000172475
0.104301
-0.000170922
0.104328
-0.000169275
0.104356
-0.000167512
0.104383
-0.000165621
0.10441
-0.000163588
0.104437
-0.000161428
0.104463
-0.000159111
0.104489
-0.000156612
0.104514
-0.00015392
0.104539
-0.000151021
0.104564
-0.000147877
0.104588
-0.000144453
0.104611
-0.000140704
0.104634
-0.000136591
0.104656
-0.000132007
0.104677
-0.000126938
0.104697
-0.000121289
0.104716
-0.000115021
0.104734
-0.00010801
0.104751
-0.000100205
0.104766
-9.14591e-05
0.10478
-8.16931e-05
0.104792
-7.07371e-05
0.104803
-5.84709e-05
0.10481
-4.4684e-05
0.104816
-2.92133e-05
0.104818
-1.17883e-05
0.104818
7.79777e-06
0.104814
2.98808e-05
0.104805
5.47235e-05
0.104792
8.27185e-05
0.104775
0.000114207
0.104751
0.000149627
0.104721
0.000189401
0.104683
0.000234023
0.104638
0.000283965
0.104583
0.000339783
0.104518
0.000401961
0.104442
0.000471061
0.104353
0.000547563
0.10425
0.000631923
0.104132
0.000724543
0.103996
0.000825706
0.103843
0.000935525
0.10367
0.00105408
0.103475
0.00118106
0.103258
0.00131606
0.103016
0.0014585
0.10275
0.0016073
0.102457
0.0017614
0.102137
0.00191862
0.00208105
0.10179
0.1053
0.00209804
0.105014
0.00201077
0.104739
0.00192462
0.104478
0.00183966
0.104228
0.00175595
0.10399
0.00167358
0.103764
0.0015927
0.10355
0.00151342
0.103347
0.00143584
0.103155
0.00136005
0.102973
0.00128612
0.102802
0.00121413
0.102641
0.00114414
0.10249
0.00107619
0.102349
0.00101033
0.102216
0.000946598
0.102092
0.000885006
0.101977
0.00082557
0.10187
0.000768295
0.101771
0.000713179
0.101679
0.000660211
0.101595
0.000609373
0.101517
0.000560639
0.101446
0.000513978
0.101382
0.000469355
0.101323
0.00042673
0.10127
0.000386061
0.101223
0.0003473
0.101181
0.000310396
0.101143
0.000275297
0.101111
0.000241946
0.101082
0.000210286
0.101058
0.000180261
0.101038
0.00015181
0.101022
0.000124878
0.101009
9.94045e-05
0.101
7.53334e-05
0.100993
5.26059e-05
0.10099
3.11652e-05
0.100989
1.09544e-05
0.100991
-8.08176e-06
0.100996
-2.59977e-05
0.101003
-4.28456e-05
0.101012
-5.86767e-05
0.101023
-7.35401e-05
0.101036
-8.74837e-05
0.101051
-0.000100553
0.101067
-0.000112794
0.101085
-0.000124248
0.101105
-0.000134957
0.101126
-0.00014496
0.101148
-0.000154297
0.101171
-0.000163003
0.101196
-0.000171114