/*--------------------------------*- C++ -*----------------------------------*\
  =========                 |
  \\      /  F ield         | OpenFOAM: The Open Source CFD Toolbox
   \\    /   O peration     | Website:  https://openfoam.org
    \\  /    A nd           | Version:  8
     \\/     M anipulation  |
\*---------------------------------------------------------------------------*/
FoamFile
{
    version     2.0;
    format      ascii;
    class       volVectorField;
    location    "100";
    object      U;
}
// * * * * * * * * * * * * * * * * * * * * * * * * * * * * * * * * * * * * * //

dimensions      [0 1 -1 0 0 0 0];

internalField   nonuniform List<vector> 
65000
(
(10.0001 -0.000304704 0)
(10.0012 -0.000910292 1.22597e-21)
(10.0035 -0.00151107 1.22865e-21)
(10.007 -0.00210567 0)
(10.0117 -0.00269379 1.23263e-21)
(10.0176 -0.00327464 0)
(10.0245 -0.0038473 0)
(10.0326 -0.00441095 0)
(10.0419 -0.00496492 1.2354e-21)
(10.0522 -0.00550862 0)
(10.0637 -0.00604146 0)
(10.0762 -0.00656291 1.23296e-21)
(10.0898 -0.0070725 1.2313e-21)
(10.1045 -0.00756987 1.22923e-21)
(10.1202 -0.00805465 0)
(10.1369 -0.0085266 1.22387e-21)
(10.1545 -0.00898549 1.2206e-21)
(10.1732 -0.00943117 0)
(10.1928 -0.00986354 1.21289e-21)
(10.2133 -0.0102826 1.20847e-21)
(10.2347 -0.0106883 0)
(10.2571 -0.0110807 1.19854e-21)
(10.2802 -0.0114599 1.19305e-21)
(10.3042 -0.0118262 1.18721e-21)
(10.3291 -0.0121795 0)
(10.3547 -0.0125203 0)
(10.3811 -0.0128486 0)
(10.4083 -0.0131648 1.16061e-21)
(10.4362 -0.0134692 1.15319e-21)
(10.4648 -0.0137621 1.14546e-21)
(10.4941 -0.0140439 0)
(10.5241 -0.0143148 1.12917e-21)
(10.5547 -0.0145752 1.12061e-21)
(10.586 -0.0148255 1.11178e-21)
(10.6179 -0.0150661 0)
(10.6504 -0.0152973 0)
(10.6835 -0.0155195 1.08376e-21)
(10.7172 -0.015733 1.07392e-21)
(10.7515 -0.0159383 1.06385e-21)
(10.7863 -0.0161358 0)
(10.8216 -0.0163257 1.04302e-21)
(10.8574 -0.0165084 1.03225e-21)
(10.8938 -0.0166843 0)
(10.9307 -0.0168537 0)
(10.968 -0.0170169 9.98677e-22)
(11.0058 -0.0171743 9.87072e-22)
(11.0441 -0.0173262 9.75268e-22)
(11.0829 -0.0174728 0)
(11.1221 -0.0176145 9.51067e-22)
(11.1618 -0.0177516 9.38677e-22)
(11.2019 -0.0178842 9.26099e-22)
(11.2424 -0.0180128 -9.13335e-22)
(11.2833 -0.0181374 9.00388e-22)
(11.3247 -0.0182584 8.87257e-22)
(11.3665 -0.0183761 8.73946e-22)
(11.4087 -0.0184904 0)
(11.4513 -0.0186019 8.46784e-22)
(11.4943 -0.0187105 8.32933e-22)
(11.5376 -0.0188166 8.18905e-22)
(11.5814 -0.0189202 -8.04698e-22)
(11.6256 -0.0190216 7.90314e-22)
(11.6702 -0.0191209 7.75752e-22)
(11.7151 -0.0192184 7.61014e-22)
(11.7605 -0.019314 7.461e-22)
(11.8062 -0.019408 0)
(11.8523 -0.0195005 7.15741e-22)
(11.8988 -0.0195917 7.00294e-22)
(11.9457 -0.0196816 0)
(11.9929 -0.0197705 0)
(12.0406 -0.0198583 6.52897e-22)
(12.0886 -0.0199453 6.36735e-22)
(12.137 -0.0200314 6.20401e-22)
(12.1858 -0.0201169 0)
(12.235 -0.0202017 5.87182e-22)
(12.2845 -0.0202861 5.70293e-22)
(12.3345 -0.0203698 5.53229e-22)
(12.3848 -0.0204533 -5.35971e-22)
(12.4355 -0.0205363 5.18532e-22)
(12.4867 -0.0206191 5.00896e-22)
(12.5382 -0.0207015 4.83073e-22)
(12.5901 -0.0207838 0)
(12.6424 -0.0208658 4.46826e-22)
(12.6952 -0.0209477 4.28397e-22)
(12.7483 -0.0210293 4.09763e-22)
(12.8018 -0.021111 -3.90914e-22)
(12.8558 -0.0211924 3.71849e-22)
(12.9102 -0.0212739 3.52564e-22)
(12.9649 -0.0213553 3.33053e-22)
(13.0202 -0.0214368 0)
(13.0758 -0.0215183 -2.93348e-22)
(13.1319 -0.0215999 0)
(13.1884 -0.0216817 2.52716e-22)
(13.2454 -0.0217637 0)
(13.3028 -0.0218459 0)
(13.3606 -0.0219284 0)
(13.419 -0.0220112 0)
(13.4777 -0.0220943 0)
(13.537 -0.0221778 0)
(13.5967 -0.0222618 0)
(13.6568 -0.0223463 8.06712e-23)
(13.7175 -0.0224313 0)
(13.7787 -0.0225169 0)
(13.8403 -0.0226032 0)
(13.9024 -0.0226901 -1.12777e-23)
(13.9651 -0.0227779 0)
(14.0282 -0.0228665 0)
(14.0919 -0.0229559 0)
(14.156 -0.0230463 -1.07518e-22)
(14.2207 -0.0231376 0)
(14.286 -0.02323 0)
(14.3517 -0.0233233 0)
(14.4181 -0.0234177 -2.08432e-22)
(14.4849 -0.023513 0)
(14.5524 -0.0236094 0)
(14.6204 -0.0237067 0)
(14.6889 -0.0238049 -3.14412e-22)
(14.7581 -0.0239041 0)
(14.8278 -0.0240042 0)
(14.8981 -0.0241053 0)
(14.9691 -0.0242072 0)
(15.0406 -0.02431 -4.54558e-22)
(15.1128 -0.0244136 0)
(15.1856 -0.0245181 0)
(15.259 -0.0246233 0)
(15.3331 -0.0247293 -5.73253e-22)
(15.4078 -0.0248361 0)
(15.4832 -0.0249437 0)
(15.5593 -0.0250521 0)
(15.636 -0.0251612 -6.98253e-22)
(15.7135 -0.025271 0)
(15.7916 -0.0253815 0)
(15.8704 -0.0254927 0)
(15.95 -0.0256046 -8.29977e-22)
(16.0303 -0.0257173 0)
(16.1113 -0.0258308 0)
(16.1931 -0.0259451 0)
(16.2756 -0.0260602 -9.68863e-22)
(16.3589 -0.0261762 0)
(16.443 -0.0262929 0)
(16.5279 -0.0264106 0)
(16.6136 -0.0265291 -1.11551e-21)
(16.7001 -0.0266487 0)
(16.7874 -0.0267691 0)
(16.8755 -0.0268906 0)
(16.9645 -0.027013 -1.27066e-21)
(17.0543 -0.0271362 0)
(17.145 -0.0272604 0)
(17.2366 -0.0273849 0)
(17.3291 -0.0275108 0)
(17.4224 -0.0276373 -1.47769e-21)
(17.5167 -0.0277653 0)
(17.6119 -0.0278933 0)
(17.708 -0.0280222 0)
(17.8051 -0.0281516 -1.65472e-21)
(17.9031 -0.0282819 0)
(18.0021 -0.0284111 0)
(18.1021 -0.0285413 0)
(18.203 -0.0286688 -1.84115e-21)
(18.305 -0.0287956 0)
(18.4079 -0.0289213 0)
(18.5119 -0.0290463 0)
(18.6168 -0.0291686 -2.0318e-21)
(18.7228 -0.0292861 0)
(18.8298 -0.0293998 0)
(18.9379 -0.0295103 0)
(19.0469 -0.0296173 -2.22782e-21)
(19.157 -0.0297207 0)
(19.268 -0.0298204 0)
(19.3801 -0.0299152 0)
(19.4931 -0.0300049 0)
(19.6071 -0.0300871 0)
(19.7221 -0.0301614 0)
(19.8379 -0.0302246 0)
(19.9547 -0.0302759 -2.65636e-21)
(20.0722 -0.0303124 0)
(20.1906 -0.0303317 0)
(20.3097 -0.0303321 0)
(20.4294 -0.0303082 0)
(20.5497 -0.0302601 -2.95428e-21)
(20.6704 -0.0301804 0)
(20.7915 -0.0300689 0)
(20.9128 -0.0299193 0)
(21.0342 -0.0297286 -3.2095e-21)
(21.1555 -0.0294931 0)
(21.2764 -0.0292066 0)
(21.3969 -0.0288685 0)
(21.5166 -0.0284688 -3.4748e-21)
(21.6353 -0.0280138 0)
(21.7527 -0.0274847 0)
(21.8685 -0.0268968 0)
(21.9824 -0.0262311 -3.74287e-21)
(22.094 -0.0254937 3.80978e-21)
(22.203 -0.0246908 -3.87543e-21)
(22.3091 -0.0238085 0)
(22.4119 -0.0228637 -4.00581e-21)
(22.5111 -0.0218554 0)
(22.6063 -0.0207929 -4.12774e-21)
(22.6972 -0.0196773 0)
(22.7836 -0.0185366 -4.24905e-21)
(22.8653 -0.0173439 0)
(10.0001 -0.000914983 0)
(10.0012 -0.00273481 1.22383e-21)
(10.0035 -0.00453806 1.22662e-21)
(10.007 -0.00632273 0)
(10.0117 -0.00808786 1.23082e-21)
(10.0176 -0.00983117 0)
(10.0246 -0.0115498 0)
(10.0327 -0.0132413 0)
(10.042 -0.0149037 1.23401e-21)
(10.0523 -0.0165352 0)
(10.0638 -0.018134 0)
(10.0764 -0.0196986 1.23185e-21)
(10.09 -0.0212277 1.23028e-21)
(10.1046 -0.0227201 1.2283e-21)
(10.1203 -0.0241746 0)
(10.1371 -0.0255905 1.2231e-21)
(10.1548 -0.0269672 1.2199e-21)
(10.1734 -0.0283043 0)
(10.193 -0.0296014 1.21234e-21)
(10.2136 -0.0308585 1.20798e-21)
(10.235 -0.0320755 0)
(10.2574 -0.0332525 1.19817e-21)
(10.2806 -0.03439 1.19274e-21)
(10.3046 -0.0354884 1.18696e-21)
(10.3295 -0.0365482 0)
(10.3551 -0.0375701 0)
(10.3815 -0.0385548 0)
(10.4087 -0.0395032 1.16054e-21)
(10.4366 -0.040416 1.15315e-21)
(10.4653 -0.0412943 1.14546e-21)
(10.4946 -0.042139 0)
(10.5246 -0.0429513 1.12923e-21)
(10.5552 -0.0437321 1.1207e-21)
(10.5865 -0.0444826 1.1119e-21)
(10.6185 -0.0452039 0)
(10.651 -0.045897 0)
(10.6841 -0.0465632 1.08395e-21)
(10.7178 -0.0472034 1.07413e-21)
(10.7521 -0.0478189 1.06408e-21)
(10.7869 -0.0484107 0)
(10.8222 -0.04898 1.04326e-21)
(10.8581 -0.0495276 1.03246e-21)
(10.8944 -0.0500549 0)
(10.9313 -0.0505626 0)
(10.9687 -0.0510519 9.98786e-22)
(11.0065 -0.0515236 9.87154e-22)
(11.0448 -0.0519788 9.75324e-22)
(11.0836 -0.0524183 0)
(11.1228 -0.052843 9.51079e-22)
(11.1625 -0.0532537 9.38671e-22)
(11.2026 -0.0536512 9.26076e-22)
(11.2431 -0.0540363 -9.13297e-22)
(11.284 -0.0544098 9.00335e-22)
(11.3254 -0.0547724 8.87193e-22)
(11.3672 -0.0551247 8.7387e-22)
(11.4094 -0.0554675 0)
(11.452 -0.0558013 8.4669e-22)
(11.495 -0.0561267 8.32832e-22)
(11.5384 -0.0564443 8.18798e-22)
(11.5822 -0.0567547 -8.04586e-22)
(11.6263 -0.0570584 7.90198e-22)
(11.6709 -0.0573558 7.75634e-22)
(11.7159 -0.0576474 7.60893e-22)
(11.7612 -0.0579337 7.45978e-22)
(11.8069 -0.0582151 0)
(11.853 -0.0584919 7.15619e-22)
(11.8995 -0.0587646 7.00173e-22)
(11.9464 -0.0590336 0)
(11.9937 -0.0592991 0)
(12.0413 -0.0595615 6.52782e-22)
(12.0893 -0.0598211 6.36623e-22)
(12.1377 -0.0600782 6.20294e-22)
(12.1865 -0.0603331 0)
(12.2357 -0.060586 5.87085e-22)
(12.2852 -0.0608371 5.70201e-22)
(12.3352 -0.0610867 5.53145e-22)
(12.3855 -0.061335 -5.35892e-22)
(12.4362 -0.0615822 5.18462e-22)
(12.4874 -0.0618285 5.00832e-22)
(12.5389 -0.0620741 4.83018e-22)
(12.5908 -0.0623191 0)
(12.6431 -0.0625637 4.46786e-22)
(12.6958 -0.0628082 4.28362e-22)
(12.749 -0.0630525 4.09735e-22)
(12.8025 -0.063297 -3.90891e-22)
(12.8565 -0.0635415 3.71833e-22)
(12.9108 -0.0637866 3.52552e-22)
(12.9656 -0.064032 3.33047e-22)
(13.0208 -0.0642781 0)
(13.0765 -0.0645247 -2.93352e-22)
(13.1326 -0.0647723 0)
(13.1891 -0.0650205 2.52729e-22)
(13.246 -0.0652699 0)
(13.3034 -0.06552 0)
(13.3613 -0.0657715 0)
(13.4196 -0.0660238 0)
(13.4784 -0.0662775 0)
(13.5376 -0.0665322 0)
(13.5973 -0.0667884 0)
(13.6575 -0.0670459 8.07435e-23)
(13.7181 -0.0673048 0)
(13.7793 -0.0675653 0)
(13.8409 -0.0678274 0)
(13.9031 -0.0680912 -1.11397e-23)
(13.9657 -0.0683567 0)
(14.0288 -0.0686244 0)
(14.0925 -0.0688938 0)
(14.1567 -0.0691658 -1.07268e-22)
(14.2214 -0.0694396 0)
(14.2866 -0.0697161 0)
(14.3524 -0.0699947 0)
(14.4187 -0.0702761 -2.08015e-22)
(14.4856 -0.0705597 0)
(14.553 -0.0708462 0)
(14.621 -0.071135 0)
(14.6895 -0.0714266 -3.13782e-22)
(14.7587 -0.0717207 0)
(14.8284 -0.0720176 0)
(14.8987 -0.0723168 0)
(14.9697 -0.072619 0)
(15.0412 -0.0729232 -4.53642e-22)
(15.1134 -0.0732306 0)
(15.1862 -0.07354 0)
(15.2596 -0.0738526 0)
(15.3337 -0.0741672 -5.72119e-22)
(15.4084 -0.074485 0)
(15.4838 -0.0748049 0)
(15.5599 -0.0751279 0)
(15.6366 -0.0754532 -6.96918e-22)
(15.714 -0.0757816 0)
(15.7921 -0.0761124 0)
(15.871 -0.0764461 0)
(15.9505 -0.0767822 -8.28468e-22)
(16.0308 -0.0771213 0)
(16.1118 -0.0774629 0)
(16.1936 -0.0778074 0)
(16.2761 -0.0781545 -9.67214e-22)
(16.3594 -0.0785041 0)
(16.4435 -0.0788564 0)
(16.5284 -0.0792116 0)
(16.614 -0.0795698 -1.11374e-21)
(16.7005 -0.0799307 0)
(16.7878 -0.0802943 0)
(16.876 -0.0806607 0)
(16.9649 -0.0810294 -1.26877e-21)
(17.0548 -0.0814007 0)
(17.1455 -0.0817742 0)
(17.237 -0.0821498 0)
(17.3295 -0.0825272 0)
(17.4228 -0.0829064 -1.47557e-21)
(17.5171 -0.0832871 0)
(17.6123 -0.0836691 0)
(17.7084 -0.0840524 0)
(17.8055 -0.0844363 -1.65242e-21)
(17.9035 -0.0848214 0)
(18.0025 -0.0852053 0)
(18.1024 -0.0855894 0)
(18.2034 -0.0859718 -1.83917e-21)
(18.3053 -0.0863526 0)
(18.4083 -0.0867304 0)
(18.5122 -0.0871052 0)
(18.6172 -0.0874726 -2.03034e-21)
(18.7232 -0.0878349 0)
(18.8302 -0.088189 0)
(18.9382 -0.0885344 0)
(19.0472 -0.0888677 -2.2265e-21)
(19.1573 -0.0891875 0)
(19.2684 -0.0894922 0)
(19.3804 -0.0897786 0)
(19.4935 -0.0900458 0)
(19.6075 -0.0902884 0)
(19.7224 -0.090505 0)
(19.8383 -0.0906876 0)
(19.9551 -0.0908339 -2.65481e-21)
(20.0727 -0.0909341 0)
(20.191 -0.0909843 0)
(20.3101 -0.0909739 0)
(20.4299 -0.0908965 0)
(20.5502 -0.0907421 -2.95378e-21)
(20.6709 -0.0905009 0)
(20.792 -0.0901629 0)
(20.9134 -0.0897155 0)
(21.0348 -0.0891476 -3.21003e-21)
(21.1561 -0.0884461 0)
(21.2771 -0.0875986 0)
(21.3976 -0.0865913 0)
(21.5173 -0.0854124 -3.47536e-21)
(21.6361 -0.0840479 0)
(21.7535 -0.0824896 0)
(21.8694 -0.0807223 0)
(21.9834 -0.0787462 -3.74159e-21)
(22.0951 -0.0765463 3.80798e-21)
(22.2042 -0.0741337 -3.87222e-21)
(22.3103 -0.0715033 0)
(22.4132 -0.0686645 -4.0011e-21)
(22.5124 -0.0656312 0)
(22.6076 -0.0624321 -4.12077e-21)
(22.6986 -0.0590957 0)
(22.7851 -0.0556704 -4.23798e-21)
(22.8668 -0.0520912 0)
(10.0001 -0.001527 0)
(10.0012 -0.00456429 -2.44043e-21)
(10.0035 -0.00757316 -2.44625e-21)
(10.0071 -0.0105509 0)
(10.0118 -0.0134958 -2.45513e-21)
(10.0176 -0.0164042 0)
(10.0247 -0.0192712 0)
(10.0328 -0.0220929 0)
(10.0421 -0.0248659 -2.46247e-21)
(10.0525 -0.0275872 0)
(10.064 -0.0302539 0)
(10.0766 -0.0328633 -2.45887e-21)
(10.0903 -0.0354132 -2.45597e-21)
(10.105 -0.0379016 -2.45223e-21)
(10.1207 -0.0403268 0)
(10.1374 -0.0426875 -2.44227e-21)
(10.1552 -0.0449827 -2.43609e-21)
(10.1739 -0.0472115 0)
(10.1936 -0.0493735 -2.42137e-21)
(10.2142 -0.0514686 -2.41285e-21)
(10.2356 -0.0534967 0)
(10.258 -0.0554582 -2.3936e-21)
(10.2813 -0.0573537 -2.38291e-21)
(10.3053 -0.0591838 -2.37151e-21)
(10.3302 -0.0609496 0)
(10.3559 -0.062652 0)
(10.3824 -0.0642924 0)
(10.4096 -0.0658721 -2.31928e-21)
(10.4376 -0.0673925 -2.30464e-21)
(10.4662 -0.0688554 -2.28939e-21)
(10.4956 -0.0702623 0)
(10.5256 -0.071615 -2.25716e-21)
(10.5563 -0.0729154 -2.24021e-21)
(10.5876 -0.0741651 -2.22271e-21)
(10.6196 -0.0753662 0)
(10.6521 -0.0765203 0)
(10.6853 -0.0776295 -2.16708e-21)
(10.719 -0.0786955 -2.14753e-21)
(10.7533 -0.0797202 -2.1275e-21)
(10.7881 -0.0807055 0)
(10.8235 -0.0816532 -2.08598e-21)
(10.8594 -0.0825651 -2.06432e-21)
(10.8957 -0.0834428 0)
(10.9326 -0.0842881 0)
(10.97 -0.0851026 -1.99689e-21)
(11.0079 -0.085888 -1.9736e-21)
(11.0462 -0.0866458 -1.94992e-21)
(11.0849 -0.0873774 0)
(11.1242 -0.0880844 -1.9014e-21)
(11.1638 -0.0887681 -1.87657e-21)
(11.2039 -0.0894298 -1.85137e-21)
(11.2445 -0.090071 1.8258e-21)
(11.2854 -0.0906928 -1.79987e-21)
(11.3268 -0.0912964 -1.77358e-21)
(11.3686 -0.091883 -1.74694e-21)
(11.4108 -0.0924536 0)
(11.4534 -0.0930093 -1.69257e-21)
(11.4964 -0.0935511 -1.66486e-21)
(11.5398 -0.0940799 -1.6368e-21)
(11.5836 -0.0945967 1.60838e-21)
(11.6278 -0.0951022 -1.57961e-21)
(11.6723 -0.0955973 -1.55048e-21)
(11.7173 -0.0960828 -1.52101e-21)
(11.7626 -0.0965594 -1.49119e-21)
(11.8084 -0.0970278 0)
(11.8545 -0.0974888 -1.43049e-21)
(11.901 -0.0979428 -1.39961e-21)
(11.9478 -0.0983905 0)
(11.9951 -0.0988325 0)
(12.0427 -0.0992693 -1.30486e-21)
(12.0907 -0.0997013 -1.27255e-21)
(12.1391 -0.100129 -1.23991e-21)
(12.1879 -0.100553 0)
(12.2371 -0.100974 -1.17351e-21)
(12.2866 -0.101392 -1.13975e-21)
(12.3366 -0.101807 -1.10565e-21)
(12.3869 -0.102221 1.07115e-21)
(12.4376 -0.102632 -1.03629e-21)
(12.4887 -0.103042 -1.00104e-21)
(12.5403 -0.103451 -9.65413e-22)
(12.5922 -0.103859 0)
(12.6445 -0.104266 -8.92951e-22)
(12.6972 -0.104673 -8.56106e-22)
(12.7503 -0.105081 -8.18852e-22)
(12.8039 -0.105488 7.81165e-22)
(12.8578 -0.105896 -7.43052e-22)
(12.9122 -0.106305 -7.04493e-22)
(12.967 -0.106714 -6.65494e-22)
(13.0222 -0.107125 0)
(13.0778 -0.107536 5.8613e-22)
(13.1339 -0.107949 0)
(13.1904 -0.108364 -5.04924e-22)
(13.2473 -0.10878 0)
(13.3047 -0.109198 4.22055e-22)
(13.3626 -0.109618 3.79813e-22)
(13.4209 -0.110039 0)
(13.4796 -0.110462 0)
(13.5389 -0.110888 0)
(13.5986 -0.111315 0)
(13.6587 -0.111745 2.07222e-25)
(13.7194 -0.112177 0)
(13.7805 -0.112612 0)
(13.8422 -0.113049 0)
(13.9043 -0.113489 2.14329e-25)
(13.9669 -0.113932 0)
(14.03 -0.114378 0)
(14.0937 -0.114827 0)
(14.1579 -0.11528 2.23628e-25)
(14.2225 -0.115736 0)
(14.2878 -0.116196 0)
(14.3535 -0.116659 0)
(14.4198 -0.117127 2.33905e-25)
(14.4867 -0.117599 0)
(14.5541 -0.118074 0)
(14.6221 -0.118554 0)
(14.6907 -0.119038 2.4446e-25)
(14.7598 -0.119527 0)
(14.8295 -0.120019 0)
(14.8998 -0.120516 0)
(14.9708 -0.121018 -8.49078e-22)
(15.0423 -0.121523 9.06676e-22)
(15.1144 -0.122033 0)
(15.1872 -0.122547 0)
(15.2606 -0.123066 0)
(15.3347 -0.123589 2.71007e-25)
(15.4094 -0.124117 0)
(15.4848 -0.124649 0)
(15.5608 -0.125186 0)
(15.6376 -0.125727 2.84799e-25)
(15.715 -0.126273 0)
(15.7931 -0.126824 0)
(15.8719 -0.12738 0)
(15.9515 -0.12794 2.97027e-25)
(16.0317 -0.128504 0)
(16.1127 -0.129074 0)
(16.1945 -0.129648 0)
(16.277 -0.130227 3.06912e-25)
(16.3603 -0.130811 0)
(16.4444 -0.131399 0)
(16.5292 -0.131992 0)
(16.6149 -0.13259 3.16732e-25)
(16.7013 -0.133192 0)
(16.7886 -0.133799 0)
(16.8768 -0.13441 0)
(16.9657 -0.135025 2.53712e-21)
(17.0555 -0.135645 -2.61719e-21)
(17.1462 -0.136268 0)
(17.2378 -0.136896 0)
(17.3302 -0.137526 0)
(17.4236 -0.138159 3.43335e-25)
(17.5178 -0.138795 0)
(17.613 -0.139432 0)
(17.7091 -0.140073 0)
(17.8062 -0.140713 3.50111e-25)
(17.9042 -0.141354 0)
(18.0032 -0.141993 0)
(18.1031 -0.142632 0)
(18.2041 -0.143269 3.49978e-25)
(18.306 -0.143905 0)
(18.409 -0.144535 0)
(18.5129 -0.145162 0)
(18.6179 -0.145777 3.39339e-25)
(18.7239 -0.146382 0)
(18.8309 -0.146972 0)
(18.9389 -0.147549 0)
(19.0479 -0.148104 3.04518e-25)
(19.158 -0.148638 0)
(19.2691 -0.149146 0)
(19.3812 -0.149625 0)
(19.4942 -0.15007 0)
(19.6082 -0.150475 -4.97246e-21)
(19.7232 -0.150833 0)
(19.8391 -0.151138 0)
(19.9559 -0.151378 5.30678e-21)
(20.0735 -0.151545 -5.42265e-21)
(20.1919 -0.151626 5.54035e-21)
(20.311 -0.151609 0)
(20.4308 -0.15148 0)
(20.5511 -0.151224 -1.69621e-25)
(20.672 -0.150825 6.03168e-21)
(20.7931 -0.150267 0)
(20.9145 -0.149528 0)
(21.036 -0.148591 -5.26245e-25)
(21.1574 -0.147431 6.5508e-21)
(21.2785 -0.14603 0)
(21.3991 -0.144361 0)
(21.5189 -0.142407 6.94765e-21)
(21.6378 -0.140143 0)
(21.7554 -0.137551 0)
(21.8714 -0.134616 0)
(21.9854 -0.131321 7.47485e-21)
(22.0973 -0.127664 -7.60598e-21)
(22.2065 -0.123638 -2.09285e-24)
(22.3128 -0.119252 0)
(22.4158 -0.114526 7.98455e-21)
(22.5151 -0.109485 0)
(22.6104 -0.104166 8.21734e-21)
(22.7014 -0.0985916 8.33549e-21)
(22.788 -0.0928547 -2.8845e-24)
(22.8697 -0.0868811 0)
(10.0001 -0.00214167 0)
(10.0012 -0.00640154 4.8764e-21)
(10.0035 -0.0106211 4.88843e-21)
(10.0071 -0.0147968 0)
(10.0118 -0.0189264 4.90698e-21)
(10.0177 -0.0230042 0)
(10.0248 -0.0270239 0)
(10.033 -0.0309797 0)
(10.0423 -0.0348669 4.92305e-21)
(10.0527 -0.0386813 0)
(10.0643 -0.0424187 0)
(10.0769 -0.0460755 4.91672e-21)
(10.0907 -0.0496485 4.91118e-21)
(10.1054 -0.0531349 4.90394e-21)
(10.1212 -0.0565324 0)
(10.138 -0.0598391 4.88447e-21)
(10.1559 -0.0630536 4.8723e-21)
(10.1746 -0.0661748 0)
(10.1944 -0.0692022 4.8432e-21)
(10.215 -0.0721355 4.82633e-21)
(10.2366 -0.0749747 0)
(10.259 -0.0777204 4.7881e-21)
(10.2823 -0.0803734 4.76682e-21)
(10.3064 -0.0829346 4.74414e-21)
(10.3314 -0.0854054 0)
(10.3572 -0.0877874 0)
(10.3837 -0.0900824 0)
(10.4109 -0.0922922 4.64001e-21)
(10.439 -0.0944189 4.61078e-21)
(10.4677 -0.096465 4.58033e-21)
(10.4971 -0.0984326 0)
(10.5272 -0.100324 4.51596e-21)
(10.5579 -0.102143 4.4821e-21)
(10.5893 -0.10389 4.44713e-21)
(10.6213 -0.105569 0)
(10.6539 -0.107183 0)
(10.6871 -0.108734 4.33592e-21)
(10.7208 -0.110224 4.29682e-21)
(10.7551 -0.111656 4.25677e-21)
(10.79 -0.113034 0)
(10.8254 -0.114358 4.17367e-21)
(10.8613 -0.115633 4.13017e-21)
(10.8977 -0.11686 0)
(10.9346 -0.118041 0)
(10.972 -0.11918 3.99479e-21)
(11.0099 -0.120278 3.94807e-21)
(11.0482 -0.121337 3.90057e-21)
(11.087 -0.122359 0)
(11.1262 -0.123347 3.80329e-21)
(11.1659 -0.124303 3.75353e-21)
(11.206 -0.125228 3.70304e-21)
(11.2466 -0.126124 -3.65182e-21)
(11.2876 -0.126993 3.59988e-21)
(11.3289 -0.127837 3.54723e-21)
(11.3707 -0.128657 3.49388e-21)
(11.4129 -0.129455 0)
(11.4555 -0.130232 3.38506e-21)
(11.4986 -0.130989 3.32959e-21)
(11.542 -0.131728 3.27343e-21)
(11.5857 -0.132451 -3.21656e-21)
(11.6299 -0.133158 3.159e-21)
(11.6745 -0.13385 3.10073e-21)
(11.7194 -0.134529 3.04177e-21)
(11.7648 -0.135195 2.98212e-21)
(11.8105 -0.13585 0)
(11.8566 -0.136495 2.86071e-21)
(11.9031 -0.13713 2.79895e-21)
(11.95 -0.137756 0)
(11.9972 -0.138374 0)
(12.0449 -0.138985 2.60948e-21)
(12.0929 -0.139589 2.54488e-21)
(12.1413 -0.140187 2.47959e-21)
(12.19 -0.14078 0)
(12.2392 -0.141369 2.34682e-21)
(12.2887 -0.141953 2.27932e-21)
(12.3387 -0.142534 2.21111e-21)
(12.389 -0.143112 -2.14213e-21)
(12.4397 -0.143688 2.07241e-21)
(12.4908 -0.144261 2.0019e-21)
(12.5423 -0.144833 1.93064e-21)
(12.5942 -0.145404 0)
(12.6465 -0.145974 1.7857e-21)
(12.6993 -0.146543 1.71201e-21)
(12.7524 -0.147113 1.63749e-21)
(12.8059 -0.147683 -1.56213e-21)
(12.8598 -0.148254 1.4859e-21)
(12.9142 -0.148826 1.4088e-21)
(12.969 -0.149399 1.33083e-21)
(13.0242 -0.149974 0)
(13.0798 -0.15055 -1.17219e-21)
(13.1359 -0.151128 0)
(13.1924 -0.151709 1.00991e-21)
(13.2493 -0.152291 0)
(13.3067 -0.152876 -4.21689e-22)
(13.3645 -0.153464 -3.79493e-22)
(13.4228 -0.154054 0)
(13.4816 -0.154647 0)
(13.5408 -0.155242 0)
(13.6004 -0.155841 0)
(13.6606 -0.156443 1.6193e-22)
(13.7212 -0.157048 0)
(13.7824 -0.157657 0)
(13.844 -0.158269 0)
(13.9061 -0.158886 -2.15595e-23)
(13.9687 -0.159506 0)
(14.0318 -0.16013 0)
(14.0954 -0.16076 0)
(14.1596 -0.161393 -2.13635e-22)
(14.2243 -0.162032 0)
(14.2895 -0.162675 0)
(14.3552 -0.163324 0)
(14.4215 -0.163978 -4.15003e-22)
(14.4883 -0.164638 0)
(14.5557 -0.165303 0)
(14.6237 -0.165974 0)
(14.6922 -0.16665 -6.26443e-22)
(14.7614 -0.167333 0)
(14.8311 -0.168022 0)
(14.9014 -0.168716 0)
(14.9723 -0.169417 8.49514e-22)
(15.0438 -0.170124 -1.81307e-21)
(15.1159 -0.170837 0)
(15.1887 -0.171557 0)
(15.2621 -0.172282 0)
(15.3362 -0.173014 -1.14322e-21)
(15.4109 -0.173752 0)
(15.4862 -0.174497 0)
(15.5622 -0.175248 0)
(15.639 -0.176006 -1.39296e-21)
(15.7164 -0.176771 0)
(15.7945 -0.177542 0)
(15.8733 -0.178319 0)
(15.9528 -0.179104 -1.65621e-21)
(16.0331 -0.179894 0)
(16.114 -0.180692 0)
(16.1958 -0.181496 0)
(16.2783 -0.182306 -1.93395e-21)
(16.3616 -0.183124 0)
(16.4456 -0.183948 0)
(16.5305 -0.184778 0)
(16.6161 -0.185615 -2.22744e-21)
(16.7026 -0.186459 0)
(16.7898 -0.187309 0)
(16.878 -0.188165 0)
(16.9669 -0.189028 -5.077e-21)
(17.0567 -0.189897 2.61945e-21)
(17.1474 -0.190771 0)
(17.2389 -0.19165 0)
(17.3314 -0.192534 0)
(17.4247 -0.193422 -2.95215e-21)
(17.519 -0.194313 0)
(17.6141 -0.195206 0)
(17.7102 -0.196102 0)
(17.8073 -0.196997 -3.30616e-21)
(17.9053 -0.197891 0)
(18.0043 -0.198788 0)
(18.1042 -0.199687 0)
(18.2051 -0.200586 -3.67933e-21)
(18.3071 -0.201481 0)
(18.41 -0.202371 0)
(18.514 -0.203251 0)
(18.6189 -0.204117 -4.06184e-21)
(18.7249 -0.204964 0)
(18.8319 -0.205794 0)
(18.94 -0.206603 0)
(19.049 -0.207387 -4.45341e-21)
(19.1591 -0.208139 0)
(19.2702 -0.208853 0)
(19.3823 -0.209526 0)
(19.4954 -0.210149 0)
(19.6094 -0.210716 4.97133e-21)
(19.7244 -0.211216 0)
(19.8403 -0.211641 0)
(19.9571 -0.211974 -1.06083e-20)
(20.0748 -0.212207 5.41998e-21)
(20.1932 -0.212318 -5.5377e-21)
(20.3124 -0.212295 0)
(20.4323 -0.212115 0)
(20.5527 -0.21176 -5.90261e-21)
(20.6736 -0.211207 -6.02816e-21)
(20.7948 -0.21043 0)
(20.9163 -0.209403 0)
(21.0379 -0.208099 -6.41627e-21)
(21.1594 -0.206486 -6.54639e-21)
(21.2806 -0.204533 0)
(21.4014 -0.202211 0)
(21.5214 -0.199483 -1.38886e-20)
(21.6404 -0.196326 0)
(21.7582 -0.192704 0)
(21.8744 -0.188601 0)
(21.9886 -0.18399 -1.49378e-20)
(22.1007 -0.178871 1.51962e-20)
(22.2101 -0.173231 -7.72605e-21)
(22.3165 -0.167089 0)
(22.4197 -0.160461 -1.59417e-20)
(22.5192 -0.153379 0)
(22.6146 -0.145899 -1.63952e-20)
(22.7057 -0.138074 -8.30868e-21)
(22.7923 -0.130025 -8.43179e-21)
(22.8741 -0.121648 0)
(10.0001 -0.0027601 0)
(10.0012 -0.00824994 -4.86402e-21)
(10.0036 -0.0136874 -4.87652e-21)
(10.0071 -0.0190681 0)
(10.0119 -0.0243889 -4.89597e-21)
(10.0179 -0.0296426 0)
(10.0249 -0.0348208 0)
(10.0332 -0.0399162 0)
(10.0426 -0.0449227 -4.91383e-21)
(10.0531 -0.0498347 0)
(10.0647 -0.054647 0)
(10.0774 -0.0593548 -4.90877e-21)
(10.0912 -0.063954 -4.90363e-21)
(10.1061 -0.0684412 -4.89679e-21)
(10.1219 -0.0728132 0)
(10.1388 -0.0770678 -4.87807e-21)
(10.1567 -0.0812031 -4.86626e-21)
(10.1756 -0.0852178 0)
(10.1954 -0.0891111 -4.83785e-21)
(10.2161 -0.0928828 -4.8213e-21)
(10.2378 -0.096533 0)
(10.2603 -0.100062 -4.78368e-21)
(10.2837 -0.103472 -4.76269e-21)
(10.3079 -0.106763 -4.74028e-21)
(10.333 -0.109938 0)
(10.3588 -0.112998 0)
(10.3854 -0.115946 0)
(10.4127 -0.118784 -4.63712e-21)
(10.4408 -0.121515 -4.6081e-21)
(10.4696 -0.124143 -4.57785e-21)
(10.4991 -0.126669 0)
(10.5292 -0.129098 -4.51385e-21)
(10.56 -0.131432 -4.48016e-21)
(10.5915 -0.133675 -4.44535e-21)
(10.6235 -0.13583 0)
(10.6562 -0.137901 0)
(10.6894 -0.139891 -4.33457e-21)
(10.7232 -0.141803 -4.2956e-21)
(10.7576 -0.143641 -4.25567e-21)
(10.7925 -0.145408 0)
(10.8279 -0.147108 -4.17269e-21)
(10.8639 -0.148743 -4.12909e-21)
(10.9003 -0.150317 0)
(10.9372 -0.151833 0)
(10.9747 -0.153294 -3.99347e-21)
(11.0126 -0.154702 -3.94668e-21)
(11.0509 -0.156061 -3.89914e-21)
(11.0897 -0.157373 0)
(11.129 -0.158641 -3.80176e-21)
(11.1687 -0.159867 -3.75196e-21)
(11.2088 -0.161054 -3.70144e-21)
(11.2494 -0.162204 3.65019e-21)
(11.2904 -0.163319 -3.59824e-21)
(11.3318 -0.164401 -3.54558e-21)
(11.3736 -0.165454 -3.49222e-21)
(11.4158 -0.166477 0)
(11.4584 -0.167474 -3.38339e-21)
(11.5014 -0.168446 -3.32792e-21)
(11.5448 -0.169395 -3.27176e-21)
(11.5886 -0.170322 3.2149e-21)
(11.6328 -0.17123 -3.15735e-21)
(11.6774 -0.172118 -3.0991e-21)
(11.7223 -0.17299 -3.04016e-21)
(11.7677 -0.173845 -2.98052e-21)
(11.8134 -0.174686 0)
(11.8595 -0.175513 -2.85916e-21)
(11.906 -0.176328 -2.79743e-21)
(11.9528 -0.177132 0)
(12.0001 -0.177926 0)
(12.0477 -0.17871 -2.60804e-21)
(12.0957 -0.179486 -2.54348e-21)
(12.1441 -0.180255 -2.47821e-21)
(12.1929 -0.181017 0)
(12.242 -0.181773 -2.34549e-21)
(12.2916 -0.182523 -2.27803e-21)
(12.3415 -0.183269 -2.20983e-21)
(12.3918 -0.184012 2.14088e-21)
(12.4425 -0.184751 -2.07117e-21)
(12.4936 -0.185488 -2.00068e-21)
(12.5451 -0.186222 -1.92942e-21)
(12.597 -0.186956 0)
(12.6493 -0.187688 -1.78451e-21)
(12.702 -0.18842 -1.71083e-21)
(12.7551 -0.189152 -1.63633e-21)
(12.8086 -0.189884 1.56098e-21)
(12.8625 -0.190618 -1.48477e-21)
(12.9169 -0.191352 -1.40771e-21)
(12.9716 -0.192088 -1.32977e-21)
(13.0268 -0.192826 0)
(13.0824 -0.193567 1.17124e-21)
(13.1385 -0.194309 0)
(13.195 -0.195055 -1.00911e-21)
(13.2519 -0.195803 0)
(13.3093 -0.196554 -8.44061e-22)
(13.3671 -0.197309 -7.59769e-22)
(13.4254 -0.198067 0)
(13.4841 -0.198829 0)
(13.5433 -0.199594 0)
(13.6029 -0.200364 0)
(13.6631 -0.201138 -6.47092e-22)
(13.7237 -0.201916 0)
(13.7848 -0.202699 0)
(13.8464 -0.203487 0)
(13.9085 -0.20428 8.66665e-23)
(13.971 -0.205078 0)
(14.0341 -0.205881 0)
(14.0977 -0.206691 0)
(14.1619 -0.207506 8.5533e-22)
(14.2265 -0.208328 0)
(14.2917 -0.209156 0)
(14.3574 -0.209991 0)
(14.4237 -0.210832 1.66162e-21)
(14.4905 -0.21168 0)
(14.5579 -0.212536 0)
(14.6259 -0.213399 0)
(14.6944 -0.214269 2.50844e-21)
(14.7635 -0.215147 0)
(14.8332 -0.216032 0)
(14.9035 -0.216926 0)
(14.9743 -0.217827 1.69894e-21)
(15.0458 -0.218736 1.81482e-21)
(15.118 -0.219653 0)
(15.1907 -0.220578 0)
(15.2641 -0.221512 0)
(15.3381 -0.222453 4.57797e-21)
(15.4128 -0.223403 0)
(15.4881 -0.224361 0)
(15.5642 -0.225328 0)
(15.6409 -0.226303 5.57782e-21)
(15.7182 -0.227286 0)
(15.7963 -0.228278 0)
(15.8751 -0.229279 0)
(15.9546 -0.230288 6.63141e-21)
(16.0349 -0.231305 0)
(16.1158 -0.232331 0)
(16.1976 -0.233366 0)
(16.2801 -0.234409 7.74267e-21)
(16.3633 -0.235461 0)
(16.4474 -0.236521 0)
(16.5322 -0.237589 0)
(16.6178 -0.238666 4.45889e-21)
(16.7043 -0.239752 0)
(16.7915 -0.240847 0)
(16.8796 -0.24195 0)
(16.9686 -0.24306 5.07987e-21)
(17.0583 -0.244179 5.23952e-21)
(17.149 -0.245304 0)
(17.2405 -0.246436 0)
(17.333 -0.247574 0)
(17.4263 -0.248717 5.90758e-21)
(17.5205 -0.249864 0)
(17.6157 -0.251014 0)
(17.7118 -0.252166 0)
(17.8088 -0.253319 1.32297e-20)
(17.9068 -0.254472 0)
(18.0058 -0.255628 0)
(18.1057 -0.256784 0)
(18.2066 -0.25794 1.47177e-20)
(18.3086 -0.259089 0)
(18.4115 -0.260233 -7.73892e-21)
(18.5154 -0.261364 0)
(18.6204 -0.26248 1.62489e-20)
(18.7264 -0.263576 0)
(18.8334 -0.264647 0)
(18.9414 -0.265689 0)
(19.0505 -0.266698 1.7816e-20)
(19.1605 -0.267664 0)
(19.2716 -0.268583 0)
(19.3838 -0.269447 -9.51766e-21)
(19.4969 -0.270248 0)
(19.6109 -0.270976 9.93936e-21)
(19.726 -0.271618 0)
(19.842 -0.272164 0)
(19.9588 -0.272595 1.06035e-20)
(20.0765 -0.272895 1.08335e-20)
(20.195 -0.273043 0)
(20.3143 -0.273018 0)
(20.4342 -0.272795 0)
(20.5547 -0.272347 1.17949e-20)
(20.6757 -0.271646 0)
(20.7971 -0.270657 0)
(20.9187 -0.269351 0)
(21.0404 -0.267685 2.56358e-20)
(21.1621 -0.265628 0)
(21.2835 -0.26313 0)
(21.4044 -0.26016 0)
(21.5247 -0.256666 2.77444e-20)
(21.6439 -0.252619 0)
(21.7619 -0.247975 -1.44009e-20)
(21.8784 -0.242705 0)
(21.9929 -0.236787 2.98282e-20)
(22.1052 -0.230204 -3.0338e-20)
(22.2149 -0.222949 1.5413e-20)
(22.3216 -0.215052 0)
(22.4249 -0.206512 1.59031e-20)
(22.5246 -0.197384 0)
(22.6202 -0.18774 1.63509e-20)
(22.7115 -0.177657 -1.65854e-20)
(22.7982 -0.1673 1.67972e-20)
(22.8799 -0.156489 0)
(10.0001 -0.00338345 0)
(10.0012 -0.0101129 0)
(10.0036 -0.0167777 0)
(10.0072 -0.0233724 0)
(10.012 -0.029893 0)
(10.018 -0.0363308 0)
(10.0252 -0.0426752 0)
(10.0335 -0.0489173 0)
(10.0429 -0.0550496 0)
(10.0535 -0.0610652 0)
(10.0652 -0.0669577 0)
(10.078 -0.0727213 0)
(10.0919 -0.078351 0)
(10.1069 -0.0838423 0)
(10.1228 -0.0891918 0)
(10.1398 -0.0943965 0)
(10.1578 -0.0994543 0)
(10.1768 -0.104364 0)
(10.1967 -0.109123 0)
(10.2176 -0.113734 0)
(10.2393 -0.118195 0)
(10.262 -0.122507 0)
(10.2855 -0.126673 0)
(10.3098 -0.130693 0)
(10.3349 -0.13457 0)
(10.3609 -0.138306 0)
(10.3876 -0.141905 0)
(10.415 -0.145369 0)
(10.4432 -0.148702 0)
(10.4721 -0.151908 0)
(10.5016 -0.15499 0)
(10.5319 -0.157953 0)
(10.5627 -0.1608 0)
(10.5942 -0.163536 0)
(10.6264 -0.166164 0)
(10.6591 -0.168689 0)
(10.6924 -0.171116 0)
(10.7262 -0.173447 0)
(10.7607 -0.175688 0)
(10.7956 -0.177843 0)
(10.8311 -0.179915 0)
(10.8671 -0.181908 0)
(10.9036 -0.183827 0)
(10.9406 -0.185675 0)
(10.978 -0.187455 0)
(11.016 -0.189172 0)
(11.0544 -0.190828 0)
(11.0932 -0.192428 0)
(11.1325 -0.193973 0)
(11.1722 -0.195468 0)
(11.2124 -0.196915 0)
(11.253 -0.198316 0)
(11.2939 -0.199676 0)
(11.3354 -0.200996 0)
(11.3772 -0.202279 0)
(11.4194 -0.203527 0)
(11.462 -0.204743 0)
(11.505 -0.205928 0)
(11.5484 -0.207085 0)
(11.5922 -0.208216 0)
(11.6364 -0.209323 0)
(11.681 -0.210406 0)
(11.726 -0.211469 0)
(11.7713 -0.212513 0)
(11.817 -0.213539 0)
(11.8631 -0.214548 0)
(11.9096 -0.215543 0)
(11.9564 -0.216524 0)
(12.0037 -0.217492 0)
(12.0513 -0.21845 0)
(12.0993 -0.219397 0)
(12.1477 -0.220335 0)
(12.1964 -0.221264 0)
(12.2456 -0.222187 0)
(12.2951 -0.223104 0)
(12.345 -0.224015 0)
(12.3953 -0.224921 0)
(12.446 -0.225824 0)
(12.4971 -0.226723 0)
(12.5486 -0.22762 0)
(12.6005 -0.228516 0)
(12.6527 -0.22941 0)
(12.7054 -0.230304 0)
(12.7585 -0.231198 0)
(12.812 -0.232092 0)
(12.8659 -0.232988 0)
(12.9202 -0.233885 0)