# vtk DataFile Version 2.0
track0
ASCII
DATASET POLYDATA
POINTS 20 float
-0.0205 0.001 1e-05
-0.0205 0.00367778 1e-05
-0.0205 0.00635556 1e-05
-0.0205 0.00903333 1e-05
-0.0205 0.0117111 1e-05
-0.0205 0.0143889 1e-05
-0.0205 0.0170667 1e-05
-0.0205 0.0197444 1e-05
-0.0205 0.0224222 1e-05
-0.0205 0.0251 1e-05
-0.0205 0.001 1e-05
-0.0205 0.00367778 1e-05
-0.0205 0.00635556 1e-05
-0.0205 0.00903333 1e-05
-0.0205 0.0117111 1e-05
-0.0205 0.0143889 1e-05
-0.0205 0.0170667 1e-05
-0.0205 0.0197444 1e-05
-0.0205 0.0224222 1e-05
-0.0205 0.0251 1e-05
LINES 20 40
1 0
1 1
1 2
1 3
1 4
1 5
1 6
1 7
1 8
1 9
1 10
1 11
1 12
1 13
1 14
1 15
1 16
1 17
1 18
1 19
POINT_DATA 20
 FIELD attributes 1
U 3 20 float
0 	0 	0
0 	0 	0
0 	0 	0
0 	0 	0
0 	0 	0
0 	0 	0
0 	0 	0
0 	0 	0
0 	0 	0
0 	0 	0
0 	0 	0
0 	0 	0
0 	0 	0
0 	0 	0
0 	0 	0
0 	0 	0
0 	0 	0
0 	0 	0
0 	0 	0
0 	0 	0
